s 1.000000000 _4_ AGT  --- 0 tcp 40 [0 0 0 0] ------- [4:0 5:0 32 0] [0 0] 0 0
r 1.000000000 _4_ RTR  --- 0 tcp 40 [0 0 0 0] ------- [4:0 5:0 32 0] [0 0] 0 0
s 1.000000000 _4_ RTR  --- 0 AODV 48 [0 0 0 0] ------- [4:255 -1:255 30 0] [0x2 1 1 [5 0] [4 4]] (REQUEST)
s 1.000115000 _4_ MAC  --- 0 AODV 106 [0 ffffffff 4 800] ------- [4:255 -1:255 30 0] [0x2 1 1 [5 0] [4 4]] (REQUEST)
r 1.000963706 _0_ MAC  --- 0 AODV 48 [0 ffffffff 4 800] ------- [4:255 -1:255 30 0] [0x2 1 1 [5 0] [4 4]] (REQUEST)
r 1.000988706 _0_ RTR  --- 0 AODV 48 [0 ffffffff 4 800] ------- [4:255 -1:255 30 0] [0x2 1 1 [5 0] [4 4]] (REQUEST)
s 1.001869932 _0_ RTR  --- 0 AODV 48 [0 ffffffff 4 800] ------- [0:255 -1:255 29 0] [0x2 2 1 [5 0] [4 4]] (REQUEST)
s 1.002264932 _0_ MAC  --- 0 AODV 106 [0 ffffffff 0 800] ------- [0:255 -1:255 29 0] [0x2 2 1 [5 0] [4 4]] (REQUEST)
r 1.003113638 _4_ MAC  --- 0 AODV 48 [0 ffffffff 0 800] ------- [0:255 -1:255 29 0] [0x2 2 1 [5 0] [4 4]] (REQUEST)
r 1.003113679 _1_ MAC  --- 0 AODV 48 [0 ffffffff 0 800] ------- [0:255 -1:255 29 0] [0x2 2 1 [5 0] [4 4]] (REQUEST)
r 1.003113699 _5_ MAC  --- 0 AODV 48 [0 ffffffff 0 800] ------- [0:255 -1:255 29 0] [0x2 2 1 [5 0] [4 4]] (REQUEST)
r 1.003138638 _4_ RTR  --- 0 AODV 48 [0 ffffffff 0 800] ------- [0:255 -1:255 29 0] [0x2 2 1 [5 0] [4 4]] (REQUEST)
r 1.003138679 _1_ RTR  --- 0 AODV 48 [0 ffffffff 0 800] ------- [0:255 -1:255 29 0] [0x2 2 1 [5 0] [4 4]] (REQUEST)
r 1.003138699 _5_ RTR  --- 0 AODV 48 [0 ffffffff 0 800] ------- [0:255 -1:255 29 0] [0x2 2 1 [5 0] [4 4]] (REQUEST)
s 1.003138699 _5_ RTR  --- 0 AODV 44 [0 0 0 0] ------- [5:255 4:255 30 0] [0x4 1 [5 4] 10.000000] (REPLY)
s 1.003393699 _5_ MAC  --- 0 ARP 86 [0 ffffffff 5 806] ------- [REQUEST 5/5 0/0]
r 1.004082466 _0_ MAC  --- 0 ARP 28 [0 ffffffff 5 806] ------- [REQUEST 5/5 0/0]
s 1.004497466 _0_ MAC  --- 0 RTS 44 [52e 5 0 0] 
r 1.004850233 _5_ MAC  --- 0 RTS 44 [52e 5 0 0] 
s 1.004860233 _5_ MAC  --- 0 CTS 38 [3f4 0 0 0] 
r 1.005164999 _0_ MAC  --- 0 CTS 38 [3f4 0 0 0] 
s 1.005174999 _0_ MAC  --- 0 ARP 86 [13a 5 0 806] ------- [REPLY 0/0 5/5]
r 1.005863766 _5_ MAC  --- 0 ARP 28 [13a 5 0 806] ------- [REPLY 0/0 5/5]
s 1.005873766 _5_ MAC  --- 0 ACK 38 [0 0 0 0] 
r 1.006178533 _0_ MAC  --- 0 ACK 38 [0 0 0 0] 
s 1.006268297 _1_ RTR  --- 0 AODV 48 [0 ffffffff 0 800] ------- [1:255 -1:255 28 0] [0x2 3 1 [5 0] [4 4]] (REQUEST)
s 1.006487766 _5_ MAC  --- 0 RTS 44 [5ae 0 5 0] 
r 1.006840533 _0_ MAC  --- 0 RTS 44 [5ae 0 5 0] 
s 1.006850533 _0_ MAC  --- 0 CTS 38 [474 5 0 0] 
r 1.007155299 _5_ MAC  --- 0 CTS 38 [474 5 0 0] 
s 1.007165299 _5_ MAC  --- 0 AODV 102 [13a 0 5 800] ------- [5:255 4:255 30 0] [0x4 1 [5 4] 10.000000] (REPLY)
r 1.007982066 _0_ MAC  --- 0 AODV 44 [13a 0 5 800] ------- [5:255 4:255 30 0] [0x4 1 [5 4] 10.000000] (REPLY)
s 1.007992066 _0_ MAC  --- 0 ACK 38 [0 5 0 0] 
r 1.008007066 _0_ RTR  --- 0 AODV 44 [13a 0 5 800] ------- [5:255 4:255 30 0] [0x4 1 [5 4] 10.000000] (REPLY)
f 1.008007066 _0_ RTR  --- 0 AODV 44 [13a 0 5 800] ------- [5:255 4:255 29 4] [0x4 2 [5 4] 10.000000] (REPLY)
r 1.008296833 _5_ MAC  --- 0 ACK 38 [0 5 0 0] 
s 1.008436362 _1_ MAC  --- 0 AODV 106 [0 ffffffff 1 800] ------- [1:255 -1:255 28 0] [0x2 3 1 [5 0] [4 4]] (REQUEST)
r 1.009285099 _2_ MAC  --- 0 AODV 48 [0 ffffffff 1 800] ------- [1:255 -1:255 28 0] [0x2 3 1 [5 0] [4 4]] (REQUEST)
r 1.009285109 _0_ MAC  --- 0 AODV 48 [0 ffffffff 1 800] ------- [1:255 -1:255 28 0] [0x2 3 1 [5 0] [4 4]] (REQUEST)
r 1.009310099 _2_ RTR  --- 0 AODV 48 [0 ffffffff 1 800] ------- [1:255 -1:255 28 0] [0x2 3 1 [5 0] [4 4]] (REQUEST)
r 1.009310109 _0_ RTR  --- 0 AODV 48 [0 ffffffff 1 800] ------- [1:255 -1:255 28 0] [0x2 3 1 [5 0] [4 4]] (REQUEST)
s 1.009795109 _0_ MAC  --- 0 ARP 86 [0 ffffffff 0 806] ------- [REQUEST 0/0 0/4]
r 1.010483815 _4_ MAC  --- 0 ARP 28 [0 ffffffff 0 806] ------- [REQUEST 0/0 0/4]
r 1.010483856 _1_ MAC  --- 0 ARP 28 [0 ffffffff 0 806] ------- [REQUEST 0/0 0/4]
r 1.010483876 _5_ MAC  --- 0 ARP 28 [0 ffffffff 0 806] ------- [REQUEST 0/0 0/4]
s 1.011018815 _4_ MAC  --- 0 RTS 44 [52e 0 4 0] 
r 1.011371521 _0_ MAC  --- 0 RTS 44 [52e 0 4 0] 
s 1.011381521 _0_ MAC  --- 0 CTS 38 [3f4 4 0 0] 
r 1.011686226 _4_ MAC  --- 0 CTS 38 [3f4 4 0 0] 
s 1.011696226 _4_ MAC  --- 0 ARP 86 [13a 0 4 806] ------- [REPLY 4/4 0/0]
r 1.012384932 _0_ MAC  --- 0 ARP 28 [13a 0 4 806] ------- [REPLY 4/4 0/0]
s 1.012394932 _0_ MAC  --- 0 ACK 38 [0 4 0 0] 
r 1.012699638 _4_ MAC  --- 0 ACK 38 [0 4 0 0] 
s 1.013088932 _0_ MAC  --- 0 RTS 44 [5ae 4 0 0] 
r 1.013441638 _4_ MAC  --- 0 RTS 44 [5ae 4 0 0] 
s 1.013451638 _4_ MAC  --- 0 CTS 38 [474 0 0 0] 
r 1.013756344 _0_ MAC  --- 0 CTS 38 [474 0 0 0] 
s 1.013766344 _0_ MAC  --- 0 AODV 102 [13a 4 0 800] ------- [5:255 4:255 29 4] [0x4 2 [5 4] 10.000000] (REPLY)
r 1.014583049 _4_ MAC  --- 0 AODV 44 [13a 4 0 800] ------- [5:255 4:255 29 4] [0x4 2 [5 4] 10.000000] (REPLY)
s 1.014593049 _4_ MAC  --- 0 ACK 38 [0 0 0 0] 
r 1.014608049 _4_ RTR  --- 0 AODV 44 [13a 4 0 800] ------- [5:255 4:255 29 4] [0x4 2 [5 4] 10.000000] (REPLY)
s 1.014608049 _4_ RTR  --- 0 tcp 40 [0 0 0 0] ------- [4:0 5:0 30 0] [0 0] 0 0
r 1.014897755 _0_ MAC  --- 0 ACK 38 [0 0 0 0] 
s 1.015147049 _4_ MAC  --- 0 RTS 44 [58e 0 4 0] 
r 1.015499755 _0_ MAC  --- 0 RTS 44 [58e 0 4 0] 
s 1.015509755 _0_ MAC  --- 0 CTS 38 [454 4 0 0] 
r 1.015814461 _4_ MAC  --- 0 CTS 38 [454 4 0 0] 
s 1.015824461 _4_ MAC  --- 0 tcp 98 [13a 0 4 800] ------- [4:0 5:0 30 0] [0 0] 0 0
r 1.016609167 _0_ MAC  --- 0 tcp 40 [13a 0 4 800] ------- [4:0 5:0 30 0] [0 0] 1 0
s 1.016619167 _0_ MAC  --- 0 ACK 38 [0 4 0 0] 
r 1.016634167 _0_ RTR  --- 0 tcp 40 [13a 0 4 800] ------- [4:0 5:0 30 0] [0 0] 1 0
f 1.016634167 _0_ RTR  --- 0 tcp 40 [13a 0 4 800] ------- [4:0 5:0 29 5] [0 0] 1 0
r 1.016923873 _4_ MAC  --- 0 ACK 38 [0 4 0 0] 
s 1.017013167 _0_ MAC  --- 0 RTS 44 [58e 5 0 0] 
r 1.017365933 _5_ MAC  --- 0 RTS 44 [58e 5 0 0] 
s 1.017375933 _5_ MAC  --- 0 CTS 38 [454 0 0 0] 
r 1.017680700 _0_ MAC  --- 0 CTS 38 [454 0 0 0] 
s 1.017690700 _0_ MAC  --- 0 tcp 98 [13a 5 0 800] ------- [4:0 5:0 29 5] [0 0] 1 0
s 1.017907376 _2_ RTR  --- 0 AODV 48 [0 ffffffff 1 800] ------- [2:255 -1:255 27 0] [0x2 4 1 [5 0] [4 4]] (REQUEST)
r 1.018475467 _5_ MAC  --- 0 tcp 40 [13a 5 0 800] ------- [4:0 5:0 29 5] [0 0] 2 0
s 1.018485467 _5_ MAC  --- 0 ACK 38 [0 0 0 0] 
r 1.018500467 _5_ AGT  --- 0 tcp 40 [13a 5 0 800] ------- [4:0 5:0 29 5] [0 0] 2 0
s 1.018500467 _5_ AGT  --- 1 ack 40 [0 0 0 0] ------- [5:0 4:0 32 0] [0 0] 0 0
r 1.018500467 _5_ RTR  --- 1 ack 40 [0 0 0 0] ------- [5:0 4:0 32 0] [0 0] 0 0
s 1.018500467 _5_ RTR  --- 1 ack 40 [0 0 0 0] ------- [5:0 4:0 30 0] [0 0] 0 0
r 1.018790234 _0_ MAC  --- 0 ACK 38 [0 0 0 0] 
s 1.019279467 _5_ MAC  --- 0 RTS 44 [58e 0 5 0] 
r 1.019632234 _0_ MAC  --- 0 RTS 44 [58e 0 5 0] 
s 1.019642234 _0_ MAC  --- 0 CTS 38 [454 5 0 0] 
r 1.019947000 _5_ MAC  --- 0 CTS 38 [454 5 0 0] 
s 1.019957000 _5_ MAC  --- 1 ack 98 [13a 0 5 800] ------- [5:0 4:0 30 0] [0 0] 0 0
r 1.020741767 _0_ MAC  --- 1 ack 40 [13a 0 5 800] ------- [5:0 4:0 30 0] [0 0] 1 0
s 1.020751767 _0_ MAC  --- 0 ACK 38 [0 5 0 0] 
r 1.020766767 _0_ RTR  --- 1 ack 40 [13a 0 5 800] ------- [5:0 4:0 30 0] [0 0] 1 0
f 1.020766767 _0_ RTR  --- 1 ack 40 [13a 0 5 800] ------- [5:0 4:0 29 4] [0 0] 1 0
r 1.021056534 _5_ MAC  --- 0 ACK 38 [0 5 0 0] 
s 1.021651250 _2_ MAC  --- 0 AODV 106 [0 ffffffff 2 800] ------- [2:255 -1:255 27 0] [0x2 4 1 [5 0] [4 4]] (REQUEST)
r 1.022499930 _3_ MAC  --- 0 AODV 48 [0 ffffffff 2 800] ------- [2:255 -1:255 27 0] [0x2 4 1 [5 0] [4 4]] (REQUEST)
r 1.022499987 _1_ MAC  --- 0 AODV 48 [0 ffffffff 2 800] ------- [2:255 -1:255 27 0] [0x2 4 1 [5 0] [4 4]] (REQUEST)
r 1.022524930 _3_ RTR  --- 0 AODV 48 [0 ffffffff 2 800] ------- [2:255 -1:255 27 0] [0x2 4 1 [5 0] [4 4]] (REQUEST)
r 1.022524987 _1_ RTR  --- 0 AODV 48 [0 ffffffff 2 800] ------- [2:255 -1:255 27 0] [0x2 4 1 [5 0] [4 4]] (REQUEST)
s 1.022954734 _0_ MAC  --- 0 RTS 44 [58e 4 0 0] 
r 1.023307439 _4_ MAC  --- 0 RTS 44 [58e 4 0 0] 
s 1.023317439 _4_ MAC  --- 0 CTS 38 [454 0 0 0] 
r 1.023622145 _0_ MAC  --- 0 CTS 38 [454 0 0 0] 
s 1.023632145 _0_ MAC  --- 1 ack 98 [13a 4 0 800] ------- [5:0 4:0 29 4] [0 0] 1 0
r 1.024416851 _4_ MAC  --- 1 ack 40 [13a 4 0 800] ------- [5:0 4:0 29 4] [0 0] 2 0
s 1.024426851 _4_ MAC  --- 0 ACK 38 [0 0 0 0] 
r 1.024441851 _4_ AGT  --- 1 ack 40 [13a 4 0 800] ------- [5:0 4:0 29 4] [0 0] 2 0
s 1.024441851 _4_ AGT  --- 2 tcp 1540 [0 0 0 0] ------- [4:0 5:0 32 0] [1 0] 0 0
r 1.024441851 _4_ RTR  --- 2 tcp 1540 [0 0 0 0] ------- [4:0 5:0 32 0] [1 0] 0 0
s 1.024441851 _4_ AGT  --- 3 tcp 1540 [0 0 0 0] ------- [4:0 5:0 32 0] [2 0] 0 0
r 1.024441851 _4_ RTR  --- 3 tcp 1540 [0 0 0 0] ------- [4:0 5:0 32 0] [2 0] 0 0
s 1.024441851 _4_ RTR  --- 2 tcp 1540 [0 0 0 0] ------- [4:0 5:0 30 0] [1 0] 0 0
s 1.024441851 _4_ RTR  --- 3 tcp 1540 [0 0 0 0] ------- [4:0 5:0 30 0] [2 0] 0 0
r 1.024731557 _0_ MAC  --- 0 ACK 38 [0 0 0 0] 
s 1.024820851 _4_ MAC  --- 0 RTS 44 [346e 0 4 0] 
s 1.024937187 _3_ RTR  --- 0 AODV 48 [0 ffffffff 2 800] ------- [3:255 -1:255 26 0] [0x2 5 1 [5 0] [4 4]] (REQUEST)
r 1.025173557 _0_ MAC  --- 0 RTS 44 [346e 0 4 0] 
s 1.025183557 _0_ MAC  --- 0 CTS 38 [3334 4 0 0] 
s 1.025372187 _3_ MAC  --- 0 AODV 106 [0 ffffffff 3 800] ------- [3:255 -1:255 26 0] [0x2 5 1 [5 0] [4 4]] (REQUEST)
r 1.025488262 _4_ MAC  --- 0 CTS 38 [3334 4 0 0] 
s 1.025498262 _4_ MAC  --- 2 tcp 1598 [13a 0 4 800] ------- [4:0 5:0 30 0] [1 0] 0 0
D 1.026220867 _2_ MAC  COL 0 AODV 106 [0 ffffffff 3 800] ------- [3:255 -1:255 26 0] [0x2 5 1 [5 0] [4 4]] (REQUEST)
r 1.038282968 _0_ MAC  --- 2 tcp 1540 [13a 0 4 800] ------- [4:0 5:0 30 0] [1 0] 1 0
s 1.038292968 _0_ MAC  --- 0 ACK 38 [0 4 0 0] 
r 1.038307968 _0_ RTR  --- 2 tcp 1540 [13a 0 4 800] ------- [4:0 5:0 30 0] [1 0] 1 0
f 1.038307968 _0_ RTR  --- 2 tcp 1540 [13a 0 4 800] ------- [4:0 5:0 29 5] [1 0] 1 0
r 1.038597674 _4_ MAC  --- 0 ACK 38 [0 4 0 0] 
s 1.038727674 _4_ MAC  --- 0 RTS 44 [346e 0 4 0] 
r 1.039080380 _0_ MAC  --- 0 RTS 44 [346e 0 4 0] 
s 1.039090380 _0_ MAC  --- 0 CTS 38 [3334 4 0 0] 
r 1.039395086 _4_ MAC  --- 0 CTS 38 [3334 4 0 0] 
s 1.039405086 _4_ MAC  --- 3 tcp 1598 [13a 0 4 800] ------- [4:0 5:0 30 0] [2 0] 0 0
r 1.052189791 _0_ MAC  --- 3 tcp 1540 [13a 0 4 800] ------- [4:0 5:0 30 0] [2 0] 1 0
s 1.052199791 _0_ MAC  --- 0 ACK 38 [0 4 0 0] 
r 1.052214791 _0_ RTR  --- 3 tcp 1540 [13a 0 4 800] ------- [4:0 5:0 30 0] [2 0] 1 0
f 1.052214791 _0_ RTR  --- 3 tcp 1540 [13a 0 4 800] ------- [4:0 5:0 29 5] [2 0] 1 0
r 1.052504497 _4_ MAC  --- 0 ACK 38 [0 4 0 0] 
s 1.052753791 _0_ MAC  --- 0 RTS 44 [346e 5 0 0] 
r 1.053106558 _5_ MAC  --- 0 RTS 44 [346e 5 0 0] 
s 1.053116558 _5_ MAC  --- 0 CTS 38 [3334 0 0 0] 
r 1.053421325 _0_ MAC  --- 0 CTS 38 [3334 0 0 0] 
s 1.053431325 _0_ MAC  --- 2 tcp 1598 [13a 5 0 800] ------- [4:0 5:0 29 5] [1 0] 1 0
r 1.066216091 _5_ MAC  --- 2 tcp 1540 [13a 5 0 800] ------- [4:0 5:0 29 5] [1 0] 2 0
s 1.066226091 _5_ MAC  --- 0 ACK 38 [0 0 0 0] 
r 1.066241091 _5_ AGT  --- 2 tcp 1540 [13a 5 0 800] ------- [4:0 5:0 29 5] [1 0] 2 0
s 1.066241091 _5_ AGT  --- 4 ack 40 [0 0 0 0] ------- [5:0 4:0 32 0] [1 0] 0 0
r 1.066241091 _5_ RTR  --- 4 ack 40 [0 0 0 0] ------- [5:0 4:0 32 0] [1 0] 0 0
s 1.066241091 _5_ RTR  --- 4 ack 40 [0 0 0 0] ------- [5:0 4:0 30 0] [1 0] 0 0
r 1.066530858 _0_ MAC  --- 0 ACK 38 [0 0 0 0] 
s 1.066680858 _0_ MAC  --- 0 RTS 44 [346e 5 0 0] 
r 1.067033625 _5_ MAC  --- 0 RTS 44 [346e 5 0 0] 
s 1.067043625 _5_ MAC  --- 0 CTS 38 [3334 0 0 0] 
r 1.067348391 _0_ MAC  --- 0 CTS 38 [3334 0 0 0] 
s 1.067358391 _0_ MAC  --- 3 tcp 1598 [13a 5 0 800] ------- [4:0 5:0 29 5] [2 0] 1 0
r 1.080143158 _5_ MAC  --- 3 tcp 1540 [13a 5 0 800] ------- [4:0 5:0 29 5] [2 0] 2 0
s 1.080153158 _5_ MAC  --- 0 ACK 38 [0 0 0 0] 
r 1.080168158 _5_ AGT  --- 3 tcp 1540 [13a 5 0 800] ------- [4:0 5:0 29 5] [2 0] 2 0
s 1.080168158 _5_ AGT  --- 5 ack 40 [0 0 0 0] ------- [5:0 4:0 32 0] [2 0] 0 0
r 1.080168158 _5_ RTR  --- 5 ack 40 [0 0 0 0] ------- [5:0 4:0 32 0] [2 0] 0 0
s 1.080168158 _5_ RTR  --- 5 ack 40 [0 0 0 0] ------- [5:0 4:0 30 0] [2 0] 0 0
r 1.080457925 _0_ MAC  --- 0 ACK 38 [0 0 0 0] 
s 1.080607158 _5_ MAC  --- 0 RTS 44 [58e 0 5 0] 
r 1.080959925 _0_ MAC  --- 0 RTS 44 [58e 0 5 0] 
s 1.080969925 _0_ MAC  --- 0 CTS 38 [454 5 0 0] 
r 1.081274692 _5_ MAC  --- 0 CTS 38 [454 5 0 0] 
s 1.081284692 _5_ MAC  --- 4 ack 98 [13a 0 5 800] ------- [5:0 4:0 30 0] [1 0] 0 0
r 1.082069458 _0_ MAC  --- 4 ack 40 [13a 0 5 800] ------- [5:0 4:0 30 0] [1 0] 1 0
s 1.082079458 _0_ MAC  --- 0 ACK 38 [0 5 0 0] 
r 1.082094458 _0_ RTR  --- 4 ack 40 [13a 0 5 800] ------- [5:0 4:0 30 0] [1 0] 1 0
f 1.082094458 _0_ RTR  --- 4 ack 40 [13a 0 5 800] ------- [5:0 4:0 29 4] [1 0] 1 0
r 1.082384225 _5_ MAC  --- 0 ACK 38 [0 5 0 0] 
s 1.082654225 _5_ MAC  --- 0 RTS 44 [58e 0 5 0] 
r 1.083006992 _0_ MAC  --- 0 RTS 44 [58e 0 5 0] 
s 1.083016992 _0_ MAC  --- 0 CTS 38 [454 5 0 0] 
r 1.083321758 _5_ MAC  --- 0 CTS 38 [454 5 0 0] 
s 1.083331758 _5_ MAC  --- 5 ack 98 [13a 0 5 800] ------- [5:0 4:0 30 0] [2 0] 0 0
r 1.084116525 _0_ MAC  --- 5 ack 40 [13a 0 5 800] ------- [5:0 4:0 30 0] [2 0] 1 0
s 1.084126525 _0_ MAC  --- 0 ACK 38 [0 5 0 0] 
r 1.084141525 _0_ RTR  --- 5 ack 40 [13a 0 5 800] ------- [5:0 4:0 30 0] [2 0] 1 0
f 1.084141525 _0_ RTR  --- 5 ack 40 [13a 0 5 800] ------- [5:0 4:0 29 4] [2 0] 1 0
r 1.084431292 _5_ MAC  --- 0 ACK 38 [0 5 0 0] 
s 1.084700525 _0_ MAC  --- 0 RTS 44 [58e 4 0 0] 
r 1.085053231 _4_ MAC  --- 0 RTS 44 [58e 4 0 0] 
s 1.085063231 _4_ MAC  --- 0 CTS 38 [454 0 0 0] 
r 1.085367937 _0_ MAC  --- 0 CTS 38 [454 0 0 0] 
s 1.085377937 _0_ MAC  --- 4 ack 98 [13a 4 0 800] ------- [5:0 4:0 29 4] [1 0] 1 0
r 1.086162642 _4_ MAC  --- 4 ack 40 [13a 4 0 800] ------- [5:0 4:0 29 4] [1 0] 2 0
s 1.086172642 _4_ MAC  --- 0 ACK 38 [0 0 0 0] 
r 1.086187642 _4_ AGT  --- 4 ack 40 [13a 4 0 800] ------- [5:0 4:0 29 4] [1 0] 2 0
s 1.086187642 _4_ AGT  --- 6 tcp 1540 [0 0 0 0] ------- [4:0 5:0 32 0] [3 0] 0 0
r 1.086187642 _4_ RTR  --- 6 tcp 1540 [0 0 0 0] ------- [4:0 5:0 32 0] [3 0] 0 0
s 1.086187642 _4_ AGT  --- 7 tcp 1540 [0 0 0 0] ------- [4:0 5:0 32 0] [4 0] 0 0
r 1.086187642 _4_ RTR  --- 7 tcp 1540 [0 0 0 0] ------- [4:0 5:0 32 0] [4 0] 0 0
s 1.086187642 _4_ RTR  --- 6 tcp 1540 [0 0 0 0] ------- [4:0 5:0 30 0] [3 0] 0 0
s 1.086187642 _4_ RTR  --- 7 tcp 1540 [0 0 0 0] ------- [4:0 5:0 30 0] [4 0] 0 0
r 1.086477348 _0_ MAC  --- 0 ACK 38 [0 0 0 0] 
s 1.086587348 _0_ MAC  --- 0 RTS 44 [58e 4 0 0] 
r 1.086940054 _4_ MAC  --- 0 RTS 44 [58e 4 0 0] 
s 1.086950054 _4_ MAC  --- 0 CTS 38 [454 0 0 0] 
r 1.087254760 _0_ MAC  --- 0 CTS 38 [454 0 0 0] 
s 1.087264760 _0_ MAC  --- 5 ack 98 [13a 4 0 800] ------- [5:0 4:0 29 4] [2 0] 1 0
r 1.088049465 _4_ MAC  --- 5 ack 40 [13a 4 0 800] ------- [5:0 4:0 29 4] [2 0] 2 0
s 1.088059465 _4_ MAC  --- 0 ACK 38 [0 0 0 0] 
r 1.088074465 _4_ AGT  --- 5 ack 40 [13a 4 0 800] ------- [5:0 4:0 29 4] [2 0] 2 0
s 1.088074465 _4_ AGT  --- 8 tcp 1540 [0 0 0 0] ------- [4:0 5:0 32 0] [5 0] 0 0
r 1.088074465 _4_ RTR  --- 8 tcp 1540 [0 0 0 0] ------- [4:0 5:0 32 0] [5 0] 0 0
s 1.088074465 _4_ AGT  --- 9 tcp 1540 [0 0 0 0] ------- [4:0 5:0 32 0] [6 0] 0 0
r 1.088074465 _4_ RTR  --- 9 tcp 1540 [0 0 0 0] ------- [4:0 5:0 32 0] [6 0] 0 0
s 1.088074465 _4_ RTR  --- 8 tcp 1540 [0 0 0 0] ------- [4:0 5:0 30 0] [5 0] 0 0
s 1.088074465 _4_ RTR  --- 9 tcp 1540 [0 0 0 0] ------- [4:0 5:0 30 0] [6 0] 0 0
r 1.088364171 _0_ MAC  --- 0 ACK 38 [0 0 0 0] 
s 1.088933465 _4_ MAC  --- 0 RTS 44 [346e 0 4 0] 
r 1.089286171 _0_ MAC  --- 0 RTS 44 [346e 0 4 0] 
s 1.089296171 _0_ MAC  --- 0 CTS 38 [3334 4 0 0] 
r 1.089600877 _4_ MAC  --- 0 CTS 38 [3334 4 0 0] 
s 1.089610877 _4_ MAC  --- 6 tcp 1598 [13a 0 4 800] ------- [4:0 5:0 30 0] [3 0] 0 0
r 1.102395583 _0_ MAC  --- 6 tcp 1540 [13a 0 4 800] ------- [4:0 5:0 30 0] [3 0] 1 0
s 1.102405583 _0_ MAC  --- 0 ACK 38 [0 4 0 0] 
r 1.102420583 _0_ RTR  --- 6 tcp 1540 [13a 0 4 800] ------- [4:0 5:0 30 0] [3 0] 1 0
f 1.102420583 _0_ RTR  --- 6 tcp 1540 [13a 0 4 800] ------- [4:0 5:0 29 5] [3 0] 1 0
r 1.102710288 _4_ MAC  --- 0 ACK 38 [0 4 0 0] 
s 1.103099583 _0_ MAC  --- 0 RTS 44 [346e 5 0 0] 
r 1.103452349 _5_ MAC  --- 0 RTS 44 [346e 5 0 0] 
s 1.103462349 _5_ MAC  --- 0 CTS 38 [3334 0 0 0] 
r 1.103767116 _0_ MAC  --- 0 CTS 38 [3334 0 0 0] 
s 1.103777116 _0_ MAC  --- 6 tcp 1598 [13a 5 0 800] ------- [4:0 5:0 29 5] [3 0] 1 0
r 1.116561883 _5_ MAC  --- 6 tcp 1540 [13a 5 0 800] ------- [4:0 5:0 29 5] [3 0] 2 0
s 1.116571883 _5_ MAC  --- 0 ACK 38 [0 0 0 0] 
r 1.116586883 _5_ AGT  --- 6 tcp 1540 [13a 5 0 800] ------- [4:0 5:0 29 5] [3 0] 2 0
s 1.116586883 _5_ AGT  --- 10 ack 40 [0 0 0 0] ------- [5:0 4:0 32 0] [3 0] 0 0
r 1.116586883 _5_ RTR  --- 10 ack 40 [0 0 0 0] ------- [5:0 4:0 32 0] [3 0] 0 0
s 1.116586883 _5_ RTR  --- 10 ack 40 [0 0 0 0] ------- [5:0 4:0 30 0] [3 0] 0 0
r 1.116876649 _0_ MAC  --- 0 ACK 38 [0 0 0 0] 
s 1.117205883 _5_ MAC  --- 0 RTS 44 [58e 0 5 0] 
r 1.117558649 _0_ MAC  --- 0 RTS 44 [58e 0 5 0] 
s 1.117568649 _0_ MAC  --- 0 CTS 38 [454 5 0 0] 
r 1.117873416 _5_ MAC  --- 0 CTS 38 [454 5 0 0] 
s 1.117883416 _5_ MAC  --- 10 ack 98 [13a 0 5 800] ------- [5:0 4:0 30 0] [3 0] 0 0
r 1.118668183 _0_ MAC  --- 10 ack 40 [13a 0 5 800] ------- [5:0 4:0 30 0] [3 0] 1 0
s 1.118678183 _0_ MAC  --- 0 ACK 38 [0 5 0 0] 
r 1.118693183 _0_ RTR  --- 10 ack 40 [13a 0 5 800] ------- [5:0 4:0 30 0] [3 0] 1 0
f 1.118693183 _0_ RTR  --- 10 ack 40 [13a 0 5 800] ------- [5:0 4:0 29 4] [3 0] 1 0
r 1.118982950 _5_ MAC  --- 0 ACK 38 [0 5 0 0] 
s 1.119262866 _4_ MAC  --- 0 RTS 44 [346e 0 4 0] 
r 1.119615571 _0_ MAC  --- 0 RTS 44 [346e 0 4 0] 
s 1.119625571 _0_ MAC  --- 0 CTS 38 [3334 4 0 0] 
r 1.119930277 _4_ MAC  --- 0 CTS 38 [3334 4 0 0] 
s 1.119940277 _4_ MAC  --- 7 tcp 1598 [13a 0 4 800] ------- [4:0 5:0 30 0] [4 0] 0 0
r 1.132724983 _0_ MAC  --- 7 tcp 1540 [13a 0 4 800] ------- [4:0 5:0 30 0] [4 0] 1 0
s 1.132734983 _0_ MAC  --- 0 ACK 38 [0 4 0 0] 
r 1.132749983 _0_ RTR  --- 7 tcp 1540 [13a 0 4 800] ------- [4:0 5:0 30 0] [4 0] 1 0
f 1.132749983 _0_ RTR  --- 7 tcp 1540 [13a 0 4 800] ------- [4:0 5:0 29 5] [4 0] 1 0
r 1.133039689 _4_ MAC  --- 0 ACK 38 [0 4 0 0] 
s 1.133089689 _4_ MAC  --- 0 RTS 44 [346e 0 4 0] 
r 1.133442394 _0_ MAC  --- 0 RTS 44 [346e 0 4 0] 
s 1.133452394 _0_ MAC  --- 0 CTS 38 [3334 4 0 0] 
r 1.133757100 _4_ MAC  --- 0 CTS 38 [3334 4 0 0] 
s 1.133767100 _4_ MAC  --- 8 tcp 1598 [13a 0 4 800] ------- [4:0 5:0 30 0] [5 0] 0 0
r 1.146551806 _0_ MAC  --- 8 tcp 1540 [13a 0 4 800] ------- [4:0 5:0 30 0] [5 0] 1 0
s 1.146561806 _0_ MAC  --- 0 ACK 38 [0 4 0 0] 
r 1.146576806 _0_ RTR  --- 8 tcp 1540 [13a 0 4 800] ------- [4:0 5:0 30 0] [5 0] 1 0
f 1.146576806 _0_ RTR  --- 8 tcp 1540 [13a 0 4 800] ------- [4:0 5:0 29 5] [5 0] 1 0
r 1.146866512 _4_ MAC  --- 0 ACK 38 [0 4 0 0] 
s 1.146975806 _0_ MAC  --- 0 RTS 44 [58e 4 0 0] 
r 1.147328512 _4_ MAC  --- 0 RTS 44 [58e 4 0 0] 
s 1.147338512 _4_ MAC  --- 0 CTS 38 [454 0 0 0] 
r 1.147643218 _0_ MAC  --- 0 CTS 38 [454 0 0 0] 
s 1.147653218 _0_ MAC  --- 10 ack 98 [13a 4 0 800] ------- [5:0 4:0 29 4] [3 0] 1 0
r 1.148437923 _4_ MAC  --- 10 ack 40 [13a 4 0 800] ------- [5:0 4:0 29 4] [3 0] 2 0
s 1.148447923 _4_ MAC  --- 0 ACK 38 [0 0 0 0] 
r 1.148462923 _4_ AGT  --- 10 ack 40 [13a 4 0 800] ------- [5:0 4:0 29 4] [3 0] 2 0
s 1.148462923 _4_ AGT  --- 11 tcp 1540 [0 0 0 0] ------- [4:0 5:0 32 0] [7 0] 0 0
r 1.148462923 _4_ RTR  --- 11 tcp 1540 [0 0 0 0] ------- [4:0 5:0 32 0] [7 0] 0 0
s 1.148462923 _4_ AGT  --- 12 tcp 1540 [0 0 0 0] ------- [4:0 5:0 32 0] [8 0] 0 0
r 1.148462923 _4_ RTR  --- 12 tcp 1540 [0 0 0 0] ------- [4:0 5:0 32 0] [8 0] 0 0
s 1.148462923 _4_ RTR  --- 11 tcp 1540 [0 0 0 0] ------- [4:0 5:0 30 0] [7 0] 0 0
s 1.148462923 _4_ RTR  --- 12 tcp 1540 [0 0 0 0] ------- [4:0 5:0 30 0] [8 0] 0 0
r 1.148752629 _0_ MAC  --- 0 ACK 38 [0 0 0 0] 
s 1.148981923 _4_ MAC  --- 0 RTS 44 [346e 0 4 0] 
r 1.149334629 _0_ MAC  --- 0 RTS 44 [346e 0 4 0] 
s 1.149344629 _0_ MAC  --- 0 CTS 38 [3334 4 0 0] 
r 1.149649335 _4_ MAC  --- 0 CTS 38 [3334 4 0 0] 
s 1.149659335 _4_ MAC  --- 9 tcp 1598 [13a 0 4 800] ------- [4:0 5:0 30 0] [6 0] 0 0
r 1.162444041 _0_ MAC  --- 9 tcp 1540 [13a 0 4 800] ------- [4:0 5:0 30 0] [6 0] 1 0
s 1.162454041 _0_ MAC  --- 0 ACK 38 [0 4 0 0] 
r 1.162469041 _0_ RTR  --- 9 tcp 1540 [13a 0 4 800] ------- [4:0 5:0 30 0] [6 0] 1 0
f 1.162469041 _0_ RTR  --- 9 tcp 1540 [13a 0 4 800] ------- [4:0 5:0 29 5] [6 0] 1 0
r 1.162758746 _4_ MAC  --- 0 ACK 38 [0 4 0 0] 
s 1.162968041 _0_ MAC  --- 0 RTS 44 [346e 5 0 0] 
s 1.162968746 _4_ MAC  --- 0 RTS 44 [346e 0 4 0] 
r 1.163320807 _5_ MAC  --- 0 RTS 44 [346e 5 0 0] 
s 1.163915452 _0_ MAC  --- 0 RTS 44 [346e 5 0 0] 
r 1.164268219 _5_ MAC  --- 0 RTS 44 [346e 5 0 0] 
s 1.164278219 _5_ MAC  --- 0 CTS 38 [3334 0 0 0] 
r 1.164582986 _0_ MAC  --- 0 CTS 38 [3334 0 0 0] 
s 1.164592986 _0_ MAC  --- 7 tcp 1598 [13a 5 0 800] ------- [4:0 5:0 29 5] [4 0] 1 0
r 1.177377752 _5_ MAC  --- 7 tcp 1540 [13a 5 0 800] ------- [4:0 5:0 29 5] [4 0] 2 0
s 1.177387752 _5_ MAC  --- 0 ACK 38 [0 0 0 0] 
r 1.177402752 _5_ AGT  --- 7 tcp 1540 [13a 5 0 800] ------- [4:0 5:0 29 5] [4 0] 2 0
s 1.177402752 _5_ AGT  --- 13 ack 40 [0 0 0 0] ------- [5:0 4:0 32 0] [4 0] 0 0
r 1.177402752 _5_ RTR  --- 13 ack 40 [0 0 0 0] ------- [5:0 4:0 32 0] [4 0] 0 0
s 1.177402752 _5_ RTR  --- 13 ack 40 [0 0 0 0] ------- [5:0 4:0 30 0] [4 0] 0 0
r 1.177692519 _0_ MAC  --- 0 ACK 38 [0 0 0 0] 
s 1.177742519 _0_ MAC  --- 0 RTS 44 [346e 5 0 0] 
r 1.178095286 _5_ MAC  --- 0 RTS 44 [346e 5 0 0] 
s 1.178105286 _5_ MAC  --- 0 CTS 38 [3334 0 0 0] 
r 1.178410052 _0_ MAC  --- 0 CTS 38 [3334 0 0 0] 
s 1.178420052 _0_ MAC  --- 8 tcp 1598 [13a 5 0 800] ------- [4:0 5:0 29 5] [5 0] 1 0
r 1.191204819 _5_ MAC  --- 8 tcp 1540 [13a 5 0 800] ------- [4:0 5:0 29 5] [5 0] 2 0
s 1.191214819 _5_ MAC  --- 0 ACK 38 [0 0 0 0] 
r 1.191229819 _5_ AGT  --- 8 tcp 1540 [13a 5 0 800] ------- [4:0 5:0 29 5] [5 0] 2 0
s 1.191229819 _5_ AGT  --- 14 ack 40 [0 0 0 0] ------- [5:0 4:0 32 0] [5 0] 0 0
r 1.191229819 _5_ RTR  --- 14 ack 40 [0 0 0 0] ------- [5:0 4:0 32 0] [5 0] 0 0
s 1.191229819 _5_ RTR  --- 14 ack 40 [0 0 0 0] ------- [5:0 4:0 30 0] [5 0] 0 0
r 1.191519586 _0_ MAC  --- 0 ACK 38 [0 0 0 0] 
s 1.191809586 _0_ MAC  --- 0 RTS 44 [346e 5 0 0] 
r 1.192162352 _5_ MAC  --- 0 RTS 44 [346e 5 0 0] 
s 1.192172352 _5_ MAC  --- 0 CTS 38 [3334 0 0 0] 
r 1.192477119 _0_ MAC  --- 0 CTS 38 [3334 0 0 0] 
s 1.192487119 _0_ MAC  --- 9 tcp 1598 [13a 5 0 800] ------- [4:0 5:0 29 5] [6 0] 1 0
r 1.205271886 _5_ MAC  --- 9 tcp 1540 [13a 5 0 800] ------- [4:0 5:0 29 5] [6 0] 2 0
s 1.205281886 _5_ MAC  --- 0 ACK 38 [0 0 0 0] 
r 1.205296886 _5_ AGT  --- 9 tcp 1540 [13a 5 0 800] ------- [4:0 5:0 29 5] [6 0] 2 0
s 1.205296886 _5_ AGT  --- 15 ack 40 [0 0 0 0] ------- [5:0 4:0 32 0] [6 0] 0 0
r 1.205296886 _5_ RTR  --- 15 ack 40 [0 0 0 0] ------- [5:0 4:0 32 0] [6 0] 0 0
s 1.205296886 _5_ RTR  --- 15 ack 40 [0 0 0 0] ------- [5:0 4:0 30 0] [6 0] 0 0
r 1.205586652 _0_ MAC  --- 0 ACK 38 [0 0 0 0] 
s 1.205695886 _5_ MAC  --- 0 RTS 44 [58e 0 5 0] 
r 1.206048652 _0_ MAC  --- 0 RTS 44 [58e 0 5 0] 
s 1.206058652 _0_ MAC  --- 0 CTS 38 [454 5 0 0] 
r 1.206363419 _5_ MAC  --- 0 CTS 38 [454 5 0 0] 
s 1.206373419 _5_ MAC  --- 13 ack 98 [13a 0 5 800] ------- [5:0 4:0 30 0] [4 0] 0 0
r 1.207158186 _0_ MAC  --- 13 ack 40 [13a 0 5 800] ------- [5:0 4:0 30 0] [4 0] 1 0
s 1.207168186 _0_ MAC  --- 0 ACK 38 [0 5 0 0] 
r 1.207183186 _0_ RTR  --- 13 ack 40 [13a 0 5 800] ------- [5:0 4:0 30 0] [4 0] 1 0
f 1.207183186 _0_ RTR  --- 13 ack 40 [13a 0 5 800] ------- [5:0 4:0 29 4] [4 0] 1 0
r 1.207472953 _5_ MAC  --- 0 ACK 38 [0 5 0 0] 
s 1.207782186 _0_ MAC  --- 0 RTS 44 [58e 4 0 0] 
r 1.208134892 _4_ MAC  --- 0 RTS 44 [58e 4 0 0] 
s 1.208144892 _4_ MAC  --- 0 CTS 38 [454 0 0 0] 
r 1.208449597 _0_ MAC  --- 0 CTS 38 [454 0 0 0] 
s 1.208459597 _0_ MAC  --- 13 ack 98 [13a 4 0 800] ------- [5:0 4:0 29 4] [4 0] 1 0
r 1.209244303 _4_ MAC  --- 13 ack 40 [13a 4 0 800] ------- [5:0 4:0 29 4] [4 0] 2 0
s 1.209254303 _4_ MAC  --- 0 ACK 38 [0 0 0 0] 
r 1.209269303 _4_ AGT  --- 13 ack 40 [13a 4 0 800] ------- [5:0 4:0 29 4] [4 0] 2 0
s 1.209269303 _4_ AGT  --- 16 tcp 1540 [0 0 0 0] ------- [4:0 5:0 32 0] [9 0] 0 0
r 1.209269303 _4_ RTR  --- 16 tcp 1540 [0 0 0 0] ------- [4:0 5:0 32 0] [9 0] 0 0
s 1.209269303 _4_ AGT  --- 17 tcp 1540 [0 0 0 0] ------- [4:0 5:0 32 0] [10 0] 0 0
r 1.209269303 _4_ RTR  --- 17 tcp 1540 [0 0 0 0] ------- [4:0 5:0 32 0] [10 0] 0 0
s 1.209269303 _4_ RTR  --- 16 tcp 1540 [0 0 0 0] ------- [4:0 5:0 30 0] [9 0] 0 0
s 1.209269303 _4_ RTR  --- 17 tcp 1540 [0 0 0 0] ------- [4:0 5:0 30 0] [10 0] 0 0
r 1.209559009 _0_ MAC  --- 0 ACK 38 [0 0 0 0] 
s 1.210013753 _5_ MAC  --- 0 RTS 44 [58e 0 5 0] 
r 1.210366519 _0_ MAC  --- 0 RTS 44 [58e 0 5 0] 
s 1.210376519 _0_ MAC  --- 0 CTS 38 [454 5 0 0] 
r 1.210681286 _5_ MAC  --- 0 CTS 38 [454 5 0 0] 
s 1.210691286 _5_ MAC  --- 14 ack 98 [13a 0 5 800] ------- [5:0 4:0 30 0] [5 0] 0 0
r 1.211476053 _0_ MAC  --- 14 ack 40 [13a 0 5 800] ------- [5:0 4:0 30 0] [5 0] 1 0
s 1.211486053 _0_ MAC  --- 0 ACK 38 [0 5 0 0] 
r 1.211501053 _0_ RTR  --- 14 ack 40 [13a 0 5 800] ------- [5:0 4:0 30 0] [5 0] 1 0
f 1.211501053 _0_ RTR  --- 14 ack 40 [13a 0 5 800] ------- [5:0 4:0 29 4] [5 0] 1 0
r 1.211790819 _5_ MAC  --- 0 ACK 38 [0 5 0 0] 
s 1.212010736 _4_ MAC  --- 0 RTS 44 [346e 0 4 0] 
r 1.212363441 _0_ MAC  --- 0 RTS 44 [346e 0 4 0] 
s 1.212373441 _0_ MAC  --- 0 CTS 38 [3334 4 0 0] 
r 1.212678147 _4_ MAC  --- 0 CTS 38 [3334 4 0 0] 
s 1.212688147 _4_ MAC  --- 11 tcp 1598 [13a 0 4 800] ------- [4:0 5:0 30 0] [7 0] 0 0
r 1.225472853 _0_ MAC  --- 11 tcp 1540 [13a 0 4 800] ------- [4:0 5:0 30 0] [7 0] 1 0
s 1.225482853 _0_ MAC  --- 0 ACK 38 [0 4 0 0] 
r 1.225497853 _0_ RTR  --- 11 tcp 1540 [13a 0 4 800] ------- [4:0 5:0 30 0] [7 0] 1 0
f 1.225497853 _0_ RTR  --- 11 tcp 1540 [13a 0 4 800] ------- [4:0 5:0 29 5] [7 0] 1 0
r 1.225787559 _4_ MAC  --- 0 ACK 38 [0 4 0 0] 
s 1.225957559 _4_ MAC  --- 0 RTS 44 [346e 0 4 0] 
r 1.226310264 _0_ MAC  --- 0 RTS 44 [346e 0 4 0] 
s 1.226320264 _0_ MAC  --- 0 CTS 38 [3334 4 0 0] 
r 1.226624970 _4_ MAC  --- 0 CTS 38 [3334 4 0 0] 
s 1.226634970 _4_ MAC  --- 12 tcp 1598 [13a 0 4 800] ------- [4:0 5:0 30 0] [8 0] 0 0
r 1.239419676 _0_ MAC  --- 12 tcp 1540 [13a 0 4 800] ------- [4:0 5:0 30 0] [8 0] 1 0
s 1.239429676 _0_ MAC  --- 0 ACK 38 [0 4 0 0] 
r 1.239444676 _0_ RTR  --- 12 tcp 1540 [13a 0 4 800] ------- [4:0 5:0 30 0] [8 0] 1 0
f 1.239444676 _0_ RTR  --- 12 tcp 1540 [13a 0 4 800] ------- [4:0 5:0 29 5] [8 0] 1 0
r 1.239734382 _4_ MAC  --- 0 ACK 38 [0 4 0 0] 
s 1.239854420 _5_ MAC  --- 0 RTS 44 [58e 0 5 0] 
r 1.240207187 _0_ MAC  --- 0 RTS 44 [58e 0 5 0] 
s 1.240217187 _0_ MAC  --- 0 CTS 38 [454 5 0 0] 
r 1.240521953 _5_ MAC  --- 0 CTS 38 [454 5 0 0] 
s 1.240531953 _5_ MAC  --- 15 ack 98 [13a 0 5 800] ------- [5:0 4:0 30 0] [6 0] 0 0
r 1.241316720 _0_ MAC  --- 15 ack 40 [13a 0 5 800] ------- [5:0 4:0 30 0] [6 0] 1 0
s 1.241326720 _0_ MAC  --- 0 ACK 38 [0 5 0 0] 
r 1.241341720 _0_ RTR  --- 15 ack 40 [13a 0 5 800] ------- [5:0 4:0 30 0] [6 0] 1 0
f 1.241341720 _0_ RTR  --- 15 ack 40 [13a 0 5 800] ------- [5:0 4:0 29 4] [6 0] 1 0
r 1.241631487 _5_ MAC  --- 0 ACK 38 [0 5 0 0] 
s 1.241820720 _0_ MAC  --- 0 RTS 44 [58e 4 0 0] 
r 1.242173426 _4_ MAC  --- 0 RTS 44 [58e 4 0 0] 
s 1.242183426 _4_ MAC  --- 0 CTS 38 [454 0 0 0] 
r 1.242488131 _0_ MAC  --- 0 CTS 38 [454 0 0 0] 
s 1.242498131 _0_ MAC  --- 14 ack 98 [13a 4 0 800] ------- [5:0 4:0 29 4] [5 0] 1 0
r 1.243282837 _4_ MAC  --- 14 ack 40 [13a 4 0 800] ------- [5:0 4:0 29 4] [5 0] 2 0
s 1.243292837 _4_ MAC  --- 0 ACK 38 [0 0 0 0] 
r 1.243307837 _4_ AGT  --- 14 ack 40 [13a 4 0 800] ------- [5:0 4:0 29 4] [5 0] 2 0
s 1.243307837 _4_ AGT  --- 18 tcp 1540 [0 0 0 0] ------- [4:0 5:0 32 0] [11 0] 0 0
r 1.243307837 _4_ RTR  --- 18 tcp 1540 [0 0 0 0] ------- [4:0 5:0 32 0] [11 0] 0 0
s 1.243307837 _4_ AGT  --- 19 tcp 1540 [0 0 0 0] ------- [4:0 5:0 32 0] [12 0] 0 0
r 1.243307837 _4_ RTR  --- 19 tcp 1540 [0 0 0 0] ------- [4:0 5:0 32 0] [12 0] 0 0
s 1.243307837 _4_ RTR  --- 18 tcp 1540 [0 0 0 0] ------- [4:0 5:0 30 0] [11 0] 0 0
s 1.243307837 _4_ RTR  --- 19 tcp 1540 [0 0 0 0] ------- [4:0 5:0 30 0] [12 0] 0 0
r 1.243597543 _0_ MAC  --- 0 ACK 38 [0 0 0 0] 
s 1.243806837 _4_ MAC  --- 0 RTS 44 [346e 0 4 0] 
r 1.244159543 _0_ MAC  --- 0 RTS 44 [346e 0 4 0] 
s 1.244169543 _0_ MAC  --- 0 CTS 38 [3334 4 0 0] 
r 1.244474249 _4_ MAC  --- 0 CTS 38 [3334 4 0 0] 
s 1.244484249 _4_ MAC  --- 16 tcp 1598 [13a 0 4 800] ------- [4:0 5:0 30 0] [9 0] 0 0
r 1.257268954 _0_ MAC  --- 16 tcp 1540 [13a 0 4 800] ------- [4:0 5:0 30 0] [9 0] 1 0
s 1.257278954 _0_ MAC  --- 0 ACK 38 [0 4 0 0] 
r 1.257293954 _0_ RTR  --- 16 tcp 1540 [13a 0 4 800] ------- [4:0 5:0 30 0] [9 0] 1 0
f 1.257293954 _0_ RTR  --- 16 tcp 1540 [13a 0 4 800] ------- [4:0 5:0 29 5] [9 0] 1 0
r 1.257583660 _4_ MAC  --- 0 ACK 38 [0 4 0 0] 
s 1.257753660 _4_ MAC  --- 0 RTS 44 [346e 0 4 0] 
r 1.258106366 _0_ MAC  --- 0 RTS 44 [346e 0 4 0] 
s 1.258116366 _0_ MAC  --- 0 CTS 38 [3334 4 0 0] 
r 1.258421072 _4_ MAC  --- 0 CTS 38 [3334 4 0 0] 
s 1.258431072 _4_ MAC  --- 17 tcp 1598 [13a 0 4 800] ------- [4:0 5:0 30 0] [10 0] 0 0
r 1.271215778 _0_ MAC  --- 17 tcp 1540 [13a 0 4 800] ------- [4:0 5:0 30 0] [10 0] 1 0
s 1.271225778 _0_ MAC  --- 0 ACK 38 [0 4 0 0] 
r 1.271240778 _0_ RTR  --- 17 tcp 1540 [13a 0 4 800] ------- [4:0 5:0 30 0] [10 0] 1 0
f 1.271240778 _0_ RTR  --- 17 tcp 1540 [13a 0 4 800] ------- [4:0 5:0 29 5] [10 0] 1 0
r 1.271530483 _4_ MAC  --- 0 ACK 38 [0 4 0 0] 
s 1.271779778 _0_ MAC  --- 0 RTS 44 [346e 5 0 0] 
s 1.271780483 _4_ MAC  --- 0 RTS 44 [346e 0 4 0] 
r 1.272132544 _5_ MAC  --- 0 RTS 44 [346e 5 0 0] 
s 1.272667189 _0_ MAC  --- 0 RTS 44 [346e 5 0 0] 
r 1.273019956 _5_ MAC  --- 0 RTS 44 [346e 5 0 0] 
s 1.273029956 _5_ MAC  --- 0 CTS 38 [3334 0 0 0] 
r 1.273334722 _0_ MAC  --- 0 CTS 38 [3334 0 0 0] 
s 1.273344722 _0_ MAC  --- 11 tcp 1598 [13a 5 0 800] ------- [4:0 5:0 29 5] [7 0] 1 0
r 1.286129489 _5_ MAC  --- 11 tcp 1540 [13a 5 0 800] ------- [4:0 5:0 29 5] [7 0] 2 0
s 1.286139489 _5_ MAC  --- 0 ACK 38 [0 0 0 0] 