n -t * -s 0  -x 303 -y 302 -Z 0 -z 20  -v circle -c black
n -t * -s 1  -x 527 -y 301 -Z 0 -z 20  -v circle -c black
n -t * -s 2  -x 748 -y 300 -Z 0 -z 20  -v circle -c black
n -t * -s 3  -x 952 -y 299 -Z 0 -z 20  -v circle -c black
n -t * -s 4  -x 228 -y 500 -Z 0 -z 20  -v circle -c black
n -t * -s 5  -x 305 -y 72 -Z 0 -z 20  -v circle -c black
V -t * -v 1.0a5 -a 0
W -t * -x 1052 -y 600
A -t * -n 1 -p 0 -o 0x7fffffff -c 30 -a 1
A -t * -h 1 -m 1073741823 -s 0
+ -t 1.000000000 -s 4 -d -1 -p tcp -e 40 -c 2 -a 0 -i 0 -k AGT 
- -t 1.000000000 -s 4 -d -1 -p tcp -e 40 -c 2 -a 0 -i 0 -k AGT
h -t 1.000000000 -s 4 -d -1 -p tcp -e 40 -c 2 -a 0 -i 0 -k AGT
+ -t 1.000000000 -s 4 -d -1 -p AODV -e 48 -c 2 -a 0 -i 0 -k RTR 
- -t 1.000000000 -s 4 -d -1 -p AODV -e 48 -c 2 -a 0 -i 0 -k RTR
h -t 1.000000000 -s 4 -d -1 -p AODV -e 48 -c 2 -a 0 -i 0 -k RTR
+ -t 1.000115000 -s 4 -d -1 -p AODV -e 106 -c 2 -a 0 -i 0 -k MAC 
- -t 1.000115000 -s 4 -d -1 -p AODV -e 106 -c 2 -a 0 -i 0 -k MAC
h -t 1.000115000 -s 4 -d -1 -p AODV -e 106 -c 2 -a 0 -i 0 -k MAC
r -t 1.000963706 -s 0 -d -1 -p AODV -e 48 -c 2 -a 0 -i 0 -k MAC
r -t 1.000988706 -s 0 -d -1 -p AODV -e 48 -c 2 -a 0 -i 0 -k RTR
+ -t 1.001869932 -s 0 -d -1 -p AODV -e 48 -c 2 -a 0 -i 0 -k RTR 
- -t 1.001869932 -s 0 -d -1 -p AODV -e 48 -c 2 -a 0 -i 0 -k RTR
h -t 1.001869932 -s 0 -d -1 -p AODV -e 48 -c 2 -a 0 -i 0 -k RTR
+ -t 1.002264932 -s 0 -d -1 -p AODV -e 106 -c 2 -a 0 -i 0 -k MAC 
- -t 1.002264932 -s 0 -d -1 -p AODV -e 106 -c 2 -a 0 -i 0 -k MAC
h -t 1.002264932 -s 0 -d -1 -p AODV -e 106 -c 2 -a 0 -i 0 -k MAC
r -t 1.003113638 -s 4 -d -1 -p AODV -e 48 -c 2 -a 0 -i 0 -k MAC
r -t 1.003113679 -s 1 -d -1 -p AODV -e 48 -c 2 -a 0 -i 0 -k MAC
r -t 1.003113699 -s 5 -d -1 -p AODV -e 48 -c 2 -a 0 -i 0 -k MAC
r -t 1.003138638 -s 4 -d -1 -p AODV -e 48 -c 2 -a 0 -i 0 -k RTR
r -t 1.003138679 -s 1 -d -1 -p AODV -e 48 -c 2 -a 0 -i 0 -k RTR
r -t 1.003138699 -s 5 -d -1 -p AODV -e 48 -c 2 -a 0 -i 0 -k RTR
+ -t 1.003138699 -s 5 -d 0 -p AODV -e 44 -c 2 -a 0 -i 0 -k RTR 
- -t 1.003138699 -s 5 -d 0 -p AODV -e 44 -c 2 -a 0 -i 0 -k RTR
h -t 1.003138699 -s 5 -d 0 -p AODV -e 44 -c 2 -a 0 -i 0 -k RTR
+ -t 1.003393699 -s 5 -d -1 -p ARP -e 86 -c 2 -a 0 -i 0 -k MAC 
- -t 1.003393699 -s 5 -d -1 -p ARP -e 86 -c 2 -a 0 -i 0 -k MAC
h -t 1.003393699 -s 5 -d -1 -p ARP -e 86 -c 2 -a 0 -i 0 -k MAC
r -t 1.004082466 -s 0 -d -1 -p ARP -e 28 -c 2 -a 0 -i 0 -k MAC
+ -t 1.004497466 -s 0 -d -1 -p RTS -e 44 -c 2 -a 0 -i 0 -k MAC 
- -t 1.004497466 -s 0 -d -1 -p RTS -e 44 -c 2 -a 0 -i 0 -k MAC
h -t 1.004497466 -s 0 -d -1 -p RTS -e 44 -c 2 -a 0 -i 0 -k MAC
r -t 1.004850233 -s 5 -d -1 -p RTS -e 44 -c 2 -a 0 -i 0 -k MAC
+ -t 1.004860233 -s 5 -d -1 -p CTS -e 38 -c 2 -a 0 -i 0 -k MAC 
- -t 1.004860233 -s 5 -d -1 -p CTS -e 38 -c 2 -a 0 -i 0 -k MAC
h -t 1.004860233 -s 5 -d -1 -p CTS -e 38 -c 2 -a 0 -i 0 -k MAC
r -t 1.005164999 -s 0 -d -1 -p CTS -e 38 -c 2 -a 0 -i 0 -k MAC
+ -t 1.005174999 -s 0 -d -1 -p ARP -e 86 -c 2 -a 0 -i 0 -k MAC 
- -t 1.005174999 -s 0 -d -1 -p ARP -e 86 -c 2 -a 0 -i 0 -k MAC
h -t 1.005174999 -s 0 -d -1 -p ARP -e 86 -c 2 -a 0 -i 0 -k MAC
r -t 1.005863766 -s 5 -d -1 -p ARP -e 28 -c 2 -a 0 -i 0 -k MAC
+ -t 1.005873766 -s 5 -d -1 -p ACK -e 38 -c 2 -a 0 -i 0 -k MAC 
- -t 1.005873766 -s 5 -d -1 -p ACK -e 38 -c 2 -a 0 -i 0 -k MAC
h -t 1.005873766 -s 5 -d -1 -p ACK -e 38 -c 2 -a 0 -i 0 -k MAC
r -t 1.006178533 -s 0 -d -1 -p ACK -e 38 -c 2 -a 0 -i 0 -k MAC
+ -t 1.006268297 -s 1 -d -1 -p AODV -e 48 -c 2 -a 0 -i 0 -k RTR 
- -t 1.006268297 -s 1 -d -1 -p AODV -e 48 -c 2 -a 0 -i 0 -k RTR
h -t 1.006268297 -s 1 -d -1 -p AODV -e 48 -c 2 -a 0 -i 0 -k RTR
+ -t 1.006487766 -s 5 -d -1 -p RTS -e 44 -c 2 -a 0 -i 0 -k MAC 
- -t 1.006487766 -s 5 -d -1 -p RTS -e 44 -c 2 -a 0 -i 0 -k MAC
h -t 1.006487766 -s 5 -d -1 -p RTS -e 44 -c 2 -a 0 -i 0 -k MAC
r -t 1.006840533 -s 0 -d -1 -p RTS -e 44 -c 2 -a 0 -i 0 -k MAC
+ -t 1.006850533 -s 0 -d -1 -p CTS -e 38 -c 2 -a 0 -i 0 -k MAC 
- -t 1.006850533 -s 0 -d -1 -p CTS -e 38 -c 2 -a 0 -i 0 -k MAC
h -t 1.006850533 -s 0 -d -1 -p CTS -e 38 -c 2 -a 0 -i 0 -k MAC
r -t 1.007155299 -s 5 -d -1 -p CTS -e 38 -c 2 -a 0 -i 0 -k MAC
+ -t 1.007165299 -s 5 -d 0 -p AODV -e 102 -c 2 -a 0 -i 0 -k MAC 
- -t 1.007165299 -s 5 -d 0 -p AODV -e 102 -c 2 -a 0 -i 0 -k MAC
h -t 1.007165299 -s 5 -d 0 -p AODV -e 102 -c 2 -a 0 -i 0 -k MAC
r -t 1.007982066 -s 0 -d 0 -p AODV -e 44 -c 2 -a 0 -i 0 -k MAC
+ -t 1.007992066 -s 0 -d -1 -p ACK -e 38 -c 2 -a 0 -i 0 -k MAC 
- -t 1.007992066 -s 0 -d -1 -p ACK -e 38 -c 2 -a 0 -i 0 -k MAC
h -t 1.007992066 -s 0 -d -1 -p ACK -e 38 -c 2 -a 0 -i 0 -k MAC
+ -t 1.008007066 -s 0 -d 4 -p AODV -e 44 -c 2 -a 0 -i 0 -k RTR 
- -t 1.008007066 -s 0 -d 4 -p AODV -e 44 -c 2 -a 0 -i 0 -k RTR
h -t 1.008007066 -s 0 -d 4 -p AODV -e 44 -c 2 -a 0 -i 0 -k RTR
r -t 1.008296833 -s 5 -d -1 -p ACK -e 38 -c 2 -a 0 -i 0 -k MAC
+ -t 1.008436362 -s 1 -d -1 -p AODV -e 106 -c 2 -a 0 -i 0 -k MAC 
- -t 1.008436362 -s 1 -d -1 -p AODV -e 106 -c 2 -a 0 -i 0 -k MAC
h -t 1.008436362 -s 1 -d -1 -p AODV -e 106 -c 2 -a 0 -i 0 -k MAC
r -t 1.009285099 -s 2 -d -1 -p AODV -e 48 -c 2 -a 0 -i 0 -k MAC
r -t 1.009285109 -s 0 -d -1 -p AODV -e 48 -c 2 -a 0 -i 0 -k MAC
r -t 1.009310099 -s 2 -d -1 -p AODV -e 48 -c 2 -a 0 -i 0 -k RTR
r -t 1.009310109 -s 0 -d -1 -p AODV -e 48 -c 2 -a 0 -i 0 -k RTR
+ -t 1.009795109 -s 0 -d -1 -p ARP -e 86 -c 2 -a 0 -i 0 -k MAC 
- -t 1.009795109 -s 0 -d -1 -p ARP -e 86 -c 2 -a 0 -i 0 -k MAC
h -t 1.009795109 -s 0 -d -1 -p ARP -e 86 -c 2 -a 0 -i 0 -k MAC
r -t 1.010483815 -s 4 -d -1 -p ARP -e 28 -c 2 -a 0 -i 0 -k MAC
r -t 1.010483856 -s 1 -d -1 -p ARP -e 28 -c 2 -a 0 -i 0 -k MAC
r -t 1.010483876 -s 5 -d -1 -p ARP -e 28 -c 2 -a 0 -i 0 -k MAC
+ -t 1.011018815 -s 4 -d -1 -p RTS -e 44 -c 2 -a 0 -i 0 -k MAC 
- -t 1.011018815 -s 4 -d -1 -p RTS -e 44 -c 2 -a 0 -i 0 -k MAC
h -t 1.011018815 -s 4 -d -1 -p RTS -e 44 -c 2 -a 0 -i 0 -k MAC
r -t 1.011371521 -s 0 -d -1 -p RTS -e 44 -c 2 -a 0 -i 0 -k MAC
+ -t 1.011381521 -s 0 -d -1 -p CTS -e 38 -c 2 -a 0 -i 0 -k MAC 
- -t 1.011381521 -s 0 -d -1 -p CTS -e 38 -c 2 -a 0 -i 0 -k MAC
h -t 1.011381521 -s 0 -d -1 -p CTS -e 38 -c 2 -a 0 -i 0 -k MAC
r -t 1.011686226 -s 4 -d -1 -p CTS -e 38 -c 2 -a 0 -i 0 -k MAC
+ -t 1.011696226 -s 4 -d -1 -p ARP -e 86 -c 2 -a 0 -i 0 -k MAC 
- -t 1.011696226 -s 4 -d -1 -p ARP -e 86 -c 2 -a 0 -i 0 -k MAC
h -t 1.011696226 -s 4 -d -1 -p ARP -e 86 -c 2 -a 0 -i 0 -k MAC
r -t 1.012384932 -s 0 -d -1 -p ARP -e 28 -c 2 -a 0 -i 0 -k MAC
+ -t 1.012394932 -s 0 -d -1 -p ACK -e 38 -c 2 -a 0 -i 0 -k MAC 
- -t 1.012394932 -s 0 -d -1 -p ACK -e 38 -c 2 -a 0 -i 0 -k MAC
h -t 1.012394932 -s 0 -d -1 -p ACK -e 38 -c 2 -a 0 -i 0 -k MAC
r -t 1.012699638 -s 4 -d -1 -p ACK -e 38 -c 2 -a 0 -i 0 -k MAC
+ -t 1.013088932 -s 0 -d -1 -p RTS -e 44 -c 2 -a 0 -i 0 -k MAC 
- -t 1.013088932 -s 0 -d -1 -p RTS -e 44 -c 2 -a 0 -i 0 -k MAC
h -t 1.013088932 -s 0 -d -1 -p RTS -e 44 -c 2 -a 0 -i 0 -k MAC
r -t 1.013441638 -s 4 -d -1 -p RTS -e 44 -c 2 -a 0 -i 0 -k MAC
+ -t 1.013451638 -s 4 -d -1 -p CTS -e 38 -c 2 -a 0 -i 0 -k MAC 
- -t 1.013451638 -s 4 -d -1 -p CTS -e 38 -c 2 -a 0 -i 0 -k MAC
h -t 1.013451638 -s 4 -d -1 -p CTS -e 38 -c 2 -a 0 -i 0 -k MAC
r -t 1.013756344 -s 0 -d -1 -p CTS -e 38 -c 2 -a 0 -i 0 -k MAC
+ -t 1.013766344 -s 0 -d 4 -p AODV -e 102 -c 2 -a 0 -i 0 -k MAC 
- -t 1.013766344 -s 0 -d 4 -p AODV -e 102 -c 2 -a 0 -i 0 -k MAC
h -t 1.013766344 -s 0 -d 4 -p AODV -e 102 -c 2 -a 0 -i 0 -k MAC
r -t 1.014583049 -s 4 -d 4 -p AODV -e 44 -c 2 -a 0 -i 0 -k MAC
+ -t 1.014593049 -s 4 -d -1 -p ACK -e 38 -c 2 -a 0 -i 0 -k MAC 
- -t 1.014593049 -s 4 -d -1 -p ACK -e 38 -c 2 -a 0 -i 0 -k MAC
h -t 1.014593049 -s 4 -d -1 -p ACK -e 38 -c 2 -a 0 -i 0 -k MAC
+ -t 1.014608049 -s 4 -d 0 -p tcp -e 40 -c 2 -a 0 -i 0 -k RTR 
- -t 1.014608049 -s 4 -d 0 -p tcp -e 40 -c 2 -a 0 -i 0 -k RTR
h -t 1.014608049 -s 4 -d 0 -p tcp -e 40 -c 2 -a 0 -i 0 -k RTR
r -t 1.014897755 -s 0 -d -1 -p ACK -e 38 -c 2 -a 0 -i 0 -k MAC
+ -t 1.015147049 -s 4 -d -1 -p RTS -e 44 -c 2 -a 0 -i 0 -k MAC 
- -t 1.015147049 -s 4 -d -1 -p RTS -e 44 -c 2 -a 0 -i 0 -k MAC
h -t 1.015147049 -s 4 -d -1 -p RTS -e 44 -c 2 -a 0 -i 0 -k MAC
r -t 1.015499755 -s 0 -d -1 -p RTS -e 44 -c 2 -a 0 -i 0 -k MAC
+ -t 1.015509755 -s 0 -d -1 -p CTS -e 38 -c 2 -a 0 -i 0 -k MAC 
- -t 1.015509755 -s 0 -d -1 -p CTS -e 38 -c 2 -a 0 -i 0 -k MAC
h -t 1.015509755 -s 0 -d -1 -p CTS -e 38 -c 2 -a 0 -i 0 -k MAC
r -t 1.015814461 -s 4 -d -1 -p CTS -e 38 -c 2 -a 0 -i 0 -k MAC
+ -t 1.015824461 -s 4 -d 0 -p tcp -e 98 -c 2 -a 0 -i 0 -k MAC 
- -t 1.015824461 -s 4 -d 0 -p tcp -e 98 -c 2 -a 0 -i 0 -k MAC
h -t 1.015824461 -s 4 -d 0 -p tcp -e 98 -c 2 -a 0 -i 0 -k MAC
r -t 1.016609167 -s 0 -d 0 -p tcp -e 40 -c 2 -a 0 -i 0 -k MAC
+ -t 1.016619167 -s 0 -d -1 -p ACK -e 38 -c 2 -a 0 -i 0 -k MAC 
- -t 1.016619167 -s 0 -d -1 -p ACK -e 38 -c 2 -a 0 -i 0 -k MAC
h -t 1.016619167 -s 0 -d -1 -p ACK -e 38 -c 2 -a 0 -i 0 -k MAC
+ -t 1.016634167 -s 0 -d 5 -p tcp -e 40 -c 2 -a 0 -i 0 -k RTR 
- -t 1.016634167 -s 0 -d 5 -p tcp -e 40 -c 2 -a 0 -i 0 -k RTR
h -t 1.016634167 -s 0 -d 5 -p tcp -e 40 -c 2 -a 0 -i 0 -k RTR
r -t 1.016923873 -s 4 -d -1 -p ACK -e 38 -c 2 -a 0 -i 0 -k MAC
+ -t 1.017013167 -s 0 -d -1 -p RTS -e 44 -c 2 -a 0 -i 0 -k MAC 
- -t 1.017013167 -s 0 -d -1 -p RTS -e 44 -c 2 -a 0 -i 0 -k MAC
h -t 1.017013167 -s 0 -d -1 -p RTS -e 44 -c 2 -a 0 -i 0 -k MAC
r -t 1.017365933 -s 5 -d -1 -p RTS -e 44 -c 2 -a 0 -i 0 -k MAC
+ -t 1.017375933 -s 5 -d -1 -p CTS -e 38 -c 2 -a 0 -i 0 -k MAC 
- -t 1.017375933 -s 5 -d -1 -p CTS -e 38 -c 2 -a 0 -i 0 -k MAC
h -t 1.017375933 -s 5 -d -1 -p CTS -e 38 -c 2 -a 0 -i 0 -k MAC
r -t 1.017680700 -s 0 -d -1 -p CTS -e 38 -c 2 -a 0 -i 0 -k MAC
+ -t 1.017690700 -s 0 -d 5 -p tcp -e 98 -c 2 -a 0 -i 0 -k MAC 
- -t 1.017690700 -s 0 -d 5 -p tcp -e 98 -c 2 -a 0 -i 0 -k MAC
h -t 1.017690700 -s 0 -d 5 -p tcp -e 98 -c 2 -a 0 -i 0 -k MAC
+ -t 1.017907376 -s 2 -d -1 -p AODV -e 48 -c 2 -a 0 -i 0 -k RTR 
- -t 1.017907376 -s 2 -d -1 -p AODV -e 48 -c 2 -a 0 -i 0 -k RTR
h -t 1.017907376 -s 2 -d -1 -p AODV -e 48 -c 2 -a 0 -i 0 -k RTR
r -t 1.018475467 -s 5 -d 5 -p tcp -e 40 -c 2 -a 0 -i 0 -k MAC
+ -t 1.018485467 -s 5 -d -1 -p ACK -e 38 -c 2 -a 0 -i 0 -k MAC 
- -t 1.018485467 -s 5 -d -1 -p ACK -e 38 -c 2 -a 0 -i 0 -k MAC
h -t 1.018485467 -s 5 -d -1 -p ACK -e 38 -c 2 -a 0 -i 0 -k MAC
r -t 1.018500467 -s 5 -d 5 -p tcp -e 40 -c 2 -a 0 -i 0 -k AGT
+ -t 1.018500467 -s 5 -d -1 -p ack -e 40 -c 2 -a 0 -i 1 -k AGT 
- -t 1.018500467 -s 5 -d -1 -p ack -e 40 -c 2 -a 0 -i 1 -k AGT
h -t 1.018500467 -s 5 -d -1 -p ack -e 40 -c 2 -a 0 -i 1 -k AGT
+ -t 1.018500467 -s 5 -d 0 -p ack -e 40 -c 2 -a 0 -i 1 -k RTR 
- -t 1.018500467 -s 5 -d 0 -p ack -e 40 -c 2 -a 0 -i 1 -k RTR
h -t 1.018500467 -s 5 -d 0 -p ack -e 40 -c 2 -a 0 -i 1 -k RTR
r -t 1.018790234 -s 0 -d -1 -p ACK -e 38 -c 2 -a 0 -i 0 -k MAC
+ -t 1.019279467 -s 5 -d -1 -p RTS -e 44 -c 2 -a 0 -i 0 -k MAC 
- -t 1.019279467 -s 5 -d -1 -p RTS -e 44 -c 2 -a 0 -i 0 -k MAC
h -t 1.019279467 -s 5 -d -1 -p RTS -e 44 -c 2 -a 0 -i 0 -k MAC
r -t 1.019632234 -s 0 -d -1 -p RTS -e 44 -c 2 -a 0 -i 0 -k MAC
+ -t 1.019642234 -s 0 -d -1 -p CTS -e 38 -c 2 -a 0 -i 0 -k MAC 
- -t 1.019642234 -s 0 -d -1 -p CTS -e 38 -c 2 -a 0 -i 0 -k MAC
h -t 1.019642234 -s 0 -d -1 -p CTS -e 38 -c 2 -a 0 -i 0 -k MAC
r -t 1.019947000 -s 5 -d -1 -p CTS -e 38 -c 2 -a 0 -i 0 -k MAC
+ -t 1.019957000 -s 5 -d 0 -p ack -e 98 -c 2 -a 0 -i 1 -k MAC 
- -t 1.019957000 -s 5 -d 0 -p ack -e 98 -c 2 -a 0 -i 1 -k MAC
h -t 1.019957000 -s 5 -d 0 -p ack -e 98 -c 2 -a 0 -i 1 -k MAC
r -t 1.020741767 -s 0 -d 0 -p ack -e 40 -c 2 -a 0 -i 1 -k MAC
+ -t 1.020751767 -s 0 -d -1 -p ACK -e 38 -c 2 -a 0 -i 0 -k MAC 
- -t 1.020751767 -s 0 -d -1 -p ACK -e 38 -c 2 -a 0 -i 0 -k MAC
h -t 1.020751767 -s 0 -d -1 -p ACK -e 38 -c 2 -a 0 -i 0 -k MAC
+ -t 1.020766767 -s 0 -d 4 -p ack -e 40 -c 2 -a 0 -i 1 -k RTR 
- -t 1.020766767 -s 0 -d 4 -p ack -e 40 -c 2 -a 0 -i 1 -k RTR
h -t 1.020766767 -s 0 -d 4 -p ack -e 40 -c 2 -a 0 -i 1 -k RTR
r -t 1.021056534 -s 5 -d -1 -p ACK -e 38 -c 2 -a 0 -i 0 -k MAC
+ -t 1.021651250 -s 2 -d -1 -p AODV -e 106 -c 2 -a 0 -i 0 -k MAC 
- -t 1.021651250 -s 2 -d -1 -p AODV -e 106 -c 2 -a 0 -i 0 -k MAC
h -t 1.021651250 -s 2 -d -1 -p AODV -e 106 -c 2 -a 0 -i 0 -k MAC
r -t 1.022499930 -s 3 -d -1 -p AODV -e 48 -c 2 -a 0 -i 0 -k MAC
r -t 1.022499987 -s 1 -d -1 -p AODV -e 48 -c 2 -a 0 -i 0 -k MAC
r -t 1.022524930 -s 3 -d -1 -p AODV -e 48 -c 2 -a 0 -i 0 -k RTR
r -t 1.022524987 -s 1 -d -1 -p AODV -e 48 -c 2 -a 0 -i 0 -k RTR
+ -t 1.022954734 -s 0 -d -1 -p RTS -e 44 -c 2 -a 0 -i 0 -k MAC 
- -t 1.022954734 -s 0 -d -1 -p RTS -e 44 -c 2 -a 0 -i 0 -k MAC
h -t 1.022954734 -s 0 -d -1 -p RTS -e 44 -c 2 -a 0 -i 0 -k MAC
r -t 1.023307439 -s 4 -d -1 -p RTS -e 44 -c 2 -a 0 -i 0 -k MAC
+ -t 1.023317439 -s 4 -d -1 -p CTS -e 38 -c 2 -a 0 -i 0 -k MAC 
- -t 1.023317439 -s 4 -d -1 -p CTS -e 38 -c 2 -a 0 -i 0 -k MAC
h -t 1.023317439 -s 4 -d -1 -p CTS -e 38 -c 2 -a 0 -i 0 -k MAC
r -t 1.023622145 -s 0 -d -1 -p CTS -e 38 -c 2 -a 0 -i 0 -k MAC
+ -t 1.023632145 -s 0 -d 4 -p ack -e 98 -c 2 -a 0 -i 1 -k MAC 
- -t 1.023632145 -s 0 -d 4 -p ack -e 98 -c 2 -a 0 -i 1 -k MAC
h -t 1.023632145 -s 0 -d 4 -p ack -e 98 -c 2 -a 0 -i 1 -k MAC
r -t 1.024416851 -s 4 -d 4 -p ack -e 40 -c 2 -a 0 -i 1 -k MAC
+ -t 1.024426851 -s 4 -d -1 -p ACK -e 38 -c 2 -a 0 -i 0 -k MAC 
- -t 1.024426851 -s 4 -d -1 -p ACK -e 38 -c 2 -a 0 -i 0 -k MAC
h -t 1.024426851 -s 4 -d -1 -p ACK -e 38 -c 2 -a 0 -i 0 -k MAC
r -t 1.024441851 -s 4 -d 4 -p ack -e 40 -c 2 -a 0 -i 1 -k AGT
+ -t 1.024441851 -s 4 -d -1 -p tcp -e 1540 -c 2 -a 0 -i 2 -k AGT 
- -t 1.024441851 -s 4 -d -1 -p tcp -e 1540 -c 2 -a 0 -i 2 -k AGT
h -t 1.024441851 -s 4 -d -1 -p tcp -e 1540 -c 2 -a 0 -i 2 -k AGT
+ -t 1.024441851 -s 4 -d -1 -p tcp -e 1540 -c 2 -a 0 -i 3 -k AGT 
- -t 1.024441851 -s 4 -d -1 -p tcp -e 1540 -c 2 -a 0 -i 3 -k AGT
h -t 1.024441851 -s 4 -d -1 -p tcp -e 1540 -c 2 -a 0 -i 3 -k AGT
+ -t 1.024441851 -s 4 -d 0 -p tcp -e 1540 -c 2 -a 0 -i 2 -k RTR 
- -t 1.024441851 -s 4 -d 0 -p tcp -e 1540 -c 2 -a 0 -i 2 -k RTR
h -t 1.024441851 -s 4 -d 0 -p tcp -e 1540 -c 2 -a 0 -i 2 -k RTR
+ -t 1.024441851 -s 4 -d 0 -p tcp -e 1540 -c 2 -a 0 -i 3 -k RTR 
- -t 1.024441851 -s 4 -d 0 -p tcp -e 1540 -c 2 -a 0 -i 3 -k RTR
h -t 1.024441851 -s 4 -d 0 -p tcp -e 1540 -c 2 -a 0 -i 3 -k RTR
r -t 1.024731557 -s 0 -d -1 -p ACK -e 38 -c 2 -a 0 -i 0 -k MAC
+ -t 1.024820851 -s 4 -d -1 -p RTS -e 44 -c 2 -a 0 -i 0 -k MAC 
- -t 1.024820851 -s 4 -d -1 -p RTS -e 44 -c 2 -a 0 -i 0 -k MAC
h -t 1.024820851 -s 4 -d -1 -p RTS -e 44 -c 2 -a 0 -i 0 -k MAC
+ -t 1.024937187 -s 3 -d -1 -p AODV -e 48 -c 2 -a 0 -i 0 -k RTR 
- -t 1.024937187 -s 3 -d -1 -p AODV -e 48 -c 2 -a 0 -i 0 -k RTR
h -t 1.024937187 -s 3 -d -1 -p AODV -e 48 -c 2 -a 0 -i 0 -k RTR
r -t 1.025173557 -s 0 -d -1 -p RTS -e 44 -c 2 -a 0 -i 0 -k MAC
+ -t 1.025183557 -s 0 -d -1 -p CTS -e 38 -c 2 -a 0 -i 0 -k MAC 
- -t 1.025183557 -s 0 -d -1 -p CTS -e 38 -c 2 -a 0 -i 0 -k MAC
h -t 1.025183557 -s 0 -d -1 -p CTS -e 38 -c 2 -a 0 -i 0 -k MAC
+ -t 1.025372187 -s 3 -d -1 -p AODV -e 106 -c 2 -a 0 -i 0 -k MAC 
- -t 1.025372187 -s 3 -d -1 -p AODV -e 106 -c 2 -a 0 -i 0 -k MAC
h -t 1.025372187 -s 3 -d -1 -p AODV -e 106 -c 2 -a 0 -i 0 -k MAC
r -t 1.025488262 -s 4 -d -1 -p CTS -e 38 -c 2 -a 0 -i 0 -k MAC
+ -t 1.025498262 -s 4 -d 0 -p tcp -e 1598 -c 2 -a 0 -i 2 -k MAC 
- -t 1.025498262 -s 4 -d 0 -p tcp -e 1598 -c 2 -a 0 -i 2 -k MAC
h -t 1.025498262 -s 4 -d 0 -p tcp -e 1598 -c 2 -a 0 -i 2 -k MAC
d -t 1.026220867 -s 2 -d -1 -p AODV -e 106 -c 2 -a 0 -i 0 -k MAC
r -t 1.038282968 -s 0 -d 0 -p tcp -e 1540 -c 2 -a 0 -i 2 -k MAC
+ -t 1.038292968 -s 0 -d -1 -p ACK -e 38 -c 2 -a 0 -i 0 -k MAC 
- -t 1.038292968 -s 0 -d -1 -p ACK -e 38 -c 2 -a 0 -i 0 -k MAC
h -t 1.038292968 -s 0 -d -1 -p ACK -e 38 -c 2 -a 0 -i 0 -k MAC
+ -t 1.038307968 -s 0 -d 5 -p tcp -e 1540 -c 2 -a 0 -i 2 -k RTR 
- -t 1.038307968 -s 0 -d 5 -p tcp -e 1540 -c 2 -a 0 -i 2 -k RTR
h -t 1.038307968 -s 0 -d 5 -p tcp -e 1540 -c 2 -a 0 -i 2 -k RTR
r -t 1.038597674 -s 4 -d -1 -p ACK -e 38 -c 2 -a 0 -i 0 -k MAC
+ -t 1.038727674 -s 4 -d -1 -p RTS -e 44 -c 2 -a 0 -i 0 -k MAC 
- -t 1.038727674 -s 4 -d -1 -p RTS -e 44 -c 2 -a 0 -i 0 -k MAC
h -t 1.038727674 -s 4 -d -1 -p RTS -e 44 -c 2 -a 0 -i 0 -k MAC
r -t 1.039080380 -s 0 -d -1 -p RTS -e 44 -c 2 -a 0 -i 0 -k MAC
+ -t 1.039090380 -s 0 -d -1 -p CTS -e 38 -c 2 -a 0 -i 0 -k MAC 
- -t 1.039090380 -s 0 -d -1 -p CTS -e 38 -c 2 -a 0 -i 0 -k MAC
h -t 1.039090380 -s 0 -d -1 -p CTS -e 38 -c 2 -a 0 -i 0 -k MAC
r -t 1.039395086 -s 4 -d -1 -p CTS -e 38 -c 2 -a 0 -i 0 -k MAC
+ -t 1.039405086 -s 4 -d 0 -p tcp -e 1598 -c 2 -a 0 -i 3 -k MAC 
- -t 1.039405086 -s 4 -d 0 -p tcp -e 1598 -c 2 -a 0 -i 3 -k MAC
h -t 1.039405086 -s 4 -d 0 -p tcp -e 1598 -c 2 -a 0 -i 3 -k MAC
r -t 1.052189791 -s 0 -d 0 -p tcp -e 1540 -c 2 -a 0 -i 3 -k MAC
+ -t 1.052199791 -s 0 -d -1 -p ACK -e 38 -c 2 -a 0 -i 0 -k MAC 
- -t 1.052199791 -s 0 -d -1 -p ACK -e 38 -c 2 -a 0 -i 0 -k MAC
h -t 1.052199791 -s 0 -d -1 -p ACK -e 38 -c 2 -a 0 -i 0 -k MAC
+ -t 1.052214791 -s 0 -d 5 -p tcp -e 1540 -c 2 -a 0 -i 3 -k RTR 
- -t 1.052214791 -s 0 -d 5 -p tcp -e 1540 -c 2 -a 0 -i 3 -k RTR
h -t 1.052214791 -s 0 -d 5 -p tcp -e 1540 -c 2 -a 0 -i 3 -k RTR
r -t 1.052504497 -s 4 -d -1 -p ACK -e 38 -c 2 -a 0 -i 0 -k MAC
+ -t 1.052753791 -s 0 -d -1 -p RTS -e 44 -c 2 -a 0 -i 0 -k MAC 
- -t 1.052753791 -s 0 -d -1 -p RTS -e 44 -c 2 -a 0 -i 0 -k MAC
h -t 1.052753791 -s 0 -d -1 -p RTS -e 44 -c 2 -a 0 -i 0 -k MAC
r -t 1.053106558 -s 5 -d -1 -p RTS -e 44 -c 2 -a 0 -i 0 -k MAC
+ -t 1.053116558 -s 5 -d -1 -p CTS -e 38 -c 2 -a 0 -i 0 -k MAC 
- -t 1.053116558 -s 5 -d -1 -p CTS -e 38 -c 2 -a 0 -i 0 -k MAC
h -t 1.053116558 -s 5 -d -1 -p CTS -e 38 -c 2 -a 0 -i 0 -k MAC
r -t 1.053421325 -s 0 -d -1 -p CTS -e 38 -c 2 -a 0 -i 0 -k MAC
+ -t 1.053431325 -s 0 -d 5 -p tcp -e 1598 -c 2 -a 0 -i 2 -k MAC 
- -t 1.053431325 -s 0 -d 5 -p tcp -e 1598 -c 2 -a 0 -i 2 -k MAC
h -t 1.053431325 -s 0 -d 5 -p tcp -e 1598 -c 2 -a 0 -i 2 -k MAC
r -t 1.066216091 -s 5 -d 5 -p tcp -e 1540 -c 2 -a 0 -i 2 -k MAC
+ -t 1.066226091 -s 5 -d -1 -p ACK -e 38 -c 2 -a 0 -i 0 -k MAC 
- -t 1.066226091 -s 5 -d -1 -p ACK -e 38 -c 2 -a 0 -i 0 -k MAC
h -t 1.066226091 -s 5 -d -1 -p ACK -e 38 -c 2 -a 0 -i 0 -k MAC
r -t 1.066241091 -s 5 -d 5 -p tcp -e 1540 -c 2 -a 0 -i 2 -k AGT
+ -t 1.066241091 -s 5 -d -1 -p ack -e 40 -c 2 -a 0 -i 4 -k AGT 
- -t 1.066241091 -s 5 -d -1 -p ack -e 40 -c 2 -a 0 -i 4 -k AGT
h -t 1.066241091 -s 5 -d -1 -p ack -e 40 -c 2 -a 0 -i 4 -k AGT
+ -t 1.066241091 -s 5 -d 0 -p ack -e 40 -c 2 -a 0 -i 4 -k RTR 
- -t 1.066241091 -s 5 -d 0 -p ack -e 40 -c 2 -a 0 -i 4 -k RTR
h -t 1.066241091 -s 5 -d 0 -p ack -e 40 -c 2 -a 0 -i 4 -k RTR
r -t 1.066530858 -s 0 -d -1 -p ACK -e 38 -c 2 -a 0 -i 0 -k MAC
+ -t 1.066680858 -s 0 -d -1 -p RTS -e 44 -c 2 -a 0 -i 0 -k MAC 
- -t 1.066680858 -s 0 -d -1 -p RTS -e 44 -c 2 -a 0 -i 0 -k MAC
h -t 1.066680858 -s 0 -d -1 -p RTS -e 44 -c 2 -a 0 -i 0 -k MAC
r -t 1.067033625 -s 5 -d -1 -p RTS -e 44 -c 2 -a 0 -i 0 -k MAC
+ -t 1.067043625 -s 5 -d -1 -p CTS -e 38 -c 2 -a 0 -i 0 -k MAC 
- -t 1.067043625 -s 5 -d -1 -p CTS -e 38 -c 2 -a 0 -i 0 -k MAC
h -t 1.067043625 -s 5 -d -1 -p CTS -e 38 -c 2 -a 0 -i 0 -k MAC
r -t 1.067348391 -s 0 -d -1 -p CTS -e 38 -c 2 -a 0 -i 0 -k MAC
+ -t 1.067358391 -s 0 -d 5 -p tcp -e 1598 -c 2 -a 0 -i 3 -k MAC 
- -t 1.067358391 -s 0 -d 5 -p tcp -e 1598 -c 2 -a 0 -i 3 -k MAC
h -t 1.067358391 -s 0 -d 5 -p tcp -e 1598 -c 2 -a 0 -i 3 -k MAC
r -t 1.080143158 -s 5 -d 5 -p tcp -e 1540 -c 2 -a 0 -i 3 -k MAC
+ -t 1.080153158 -s 5 -d -1 -p ACK -e 38 -c 2 -a 0 -i 0 -k MAC 
- -t 1.080153158 -s 5 -d -1 -p ACK -e 38 -c 2 -a 0 -i 0 -k MAC
h -t 1.080153158 -s 5 -d -1 -p ACK -e 38 -c 2 -a 0 -i 0 -k MAC
r -t 1.080168158 -s 5 -d 5 -p tcp -e 1540 -c 2 -a 0 -i 3 -k AGT
+ -t 1.080168158 -s 5 -d -1 -p ack -e 40 -c 2 -a 0 -i 5 -k AGT 
- -t 1.080168158 -s 5 -d -1 -p ack -e 40 -c 2 -a 0 -i 5 -k AGT
h -t 1.080168158 -s 5 -d -1 -p ack -e 40 -c 2 -a 0 -i 5 -k AGT
+ -t 1.080168158 -s 5 -d 0 -p ack -e 40 -c 2 -a 0 -i 5 -k RTR 
- -t 1.080168158 -s 5 -d 0 -p ack -e 40 -c 2 -a 0 -i 5 -k RTR
h -t 1.080168158 -s 5 -d 0 -p ack -e 40 -c 2 -a 0 -i 5 -k RTR
r -t 1.080457925 -s 0 -d -1 -p ACK -e 38 -c 2 -a 0 -i 0 -k MAC
+ -t 1.080607158 -s 5 -d -1 -p RTS -e 44 -c 2 -a 0 -i 0 -k MAC 
- -t 1.080607158 -s 5 -d -1 -p RTS -e 44 -c 2 -a 0 -i 0 -k MAC
h -t 1.080607158 -s 5 -d -1 -p RTS -e 44 -c 2 -a 0 -i 0 -k MAC
r -t 1.080959925 -s 0 -d -1 -p RTS -e 44 -c 2 -a 0 -i 0 -k MAC
+ -t 1.080969925 -s 0 -d -1 -p CTS -e 38 -c 2 -a 0 -i 0 -k MAC 
- -t 1.080969925 -s 0 -d -1 -p CTS -e 38 -c 2 -a 0 -i 0 -k MAC
h -t 1.080969925 -s 0 -d -1 -p CTS -e 38 -c 2 -a 0 -i 0 -k MAC
r -t 1.081274692 -s 5 -d -1 -p CTS -e 38 -c 2 -a 0 -i 0 -k MAC
+ -t 1.081284692 -s 5 -d 0 -p ack -e 98 -c 2 -a 0 -i 4 -k MAC 
- -t 1.081284692 -s 5 -d 0 -p ack -e 98 -c 2 -a 0 -i 4 -k MAC
h -t 1.081284692 -s 5 -d 0 -p ack -e 98 -c 2 -a 0 -i 4 -k MAC
r -t 1.082069458 -s 0 -d 0 -p ack -e 40 -c 2 -a 0 -i 4 -k MAC
+ -t 1.082079458 -s 0 -d -1 -p ACK -e 38 -c 2 -a 0 -i 0 -k MAC 
- -t 1.082079458 -s 0 -d -1 -p ACK -e 38 -c 2 -a 0 -i 0 -k MAC
h -t 1.082079458 -s 0 -d -1 -p ACK -e 38 -c 2 -a 0 -i 0 -k MAC
+ -t 1.082094458 -s 0 -d 4 -p ack -e 40 -c 2 -a 0 -i 4 -k RTR 
- -t 1.082094458 -s 0 -d 4 -p ack -e 40 -c 2 -a 0 -i 4 -k RTR
h -t 1.082094458 -s 0 -d 4 -p ack -e 40 -c 2 -a 0 -i 4 -k RTR
r -t 1.082384225 -s 5 -d -1 -p ACK -e 38 -c 2 -a 0 -i 0 -k MAC
+ -t 1.082654225 -s 5 -d -1 -p RTS -e 44 -c 2 -a 0 -i 0 -k MAC 
- -t 1.082654225 -s 5 -d -1 -p RTS -e 44 -c 2 -a 0 -i 0 -k MAC
h -t 1.082654225 -s 5 -d -1 -p RTS -e 44 -c 2 -a 0 -i 0 -k MAC
r -t 1.083006992 -s 0 -d -1 -p RTS -e 44 -c 2 -a 0 -i 0 -k MAC
+ -t 1.083016992 -s 0 -d -1 -p CTS -e 38 -c 2 -a 0 -i 0 -k MAC 
- -t 1.083016992 -s 0 -d -1 -p CTS -e 38 -c 2 -a 0 -i 0 -k MAC
h -t 1.083016992 -s 0 -d -1 -p CTS -e 38 -c 2 -a 0 -i 0 -k MAC
r -t 1.083321758 -s 5 -d -1 -p CTS -e 38 -c 2 -a 0 -i 0 -k MAC
+ -t 1.083331758 -s 5 -d 0 -p ack -e 98 -c 2 -a 0 -i 5 -k MAC 
- -t 1.083331758 -s 5 -d 0 -p ack -e 98 -c 2 -a 0 -i 5 -k MAC
h -t 1.083331758 -s 5 -d 0 -p ack -e 98 -c 2 -a 0 -i 5 -k MAC
r -t 1.084116525 -s 0 -d 0 -p ack -e 40 -c 2 -a 0 -i 5 -k MAC
+ -t 1.084126525 -s 0 -d -1 -p ACK -e 38 -c 2 -a 0 -i 0 -k MAC 
- -t 1.084126525 -s 0 -d -1 -p ACK -e 38 -c 2 -a 0 -i 0 -k MAC
h -t 1.084126525 -s 0 -d -1 -p ACK -e 38 -c 2 -a 0 -i 0 -k MAC
+ -t 1.084141525 -s 0 -d 4 -p ack -e 40 -c 2 -a 0 -i 5 -k RTR 
- -t 1.084141525 -s 0 -d 4 -p ack -e 40 -c 2 -a 0 -i 5 -k RTR
h -t 1.084141525 -s 0 -d 4 -p ack -e 40 -c 2 -a 0 -i 5 -k RTR
r -t 1.084431292 -s 5 -d -1 -p ACK -e 38 -c 2 -a 0 -i 0 -k MAC
+ -t 1.084700525 -s 0 -d -1 -p RTS -e 44 -c 2 -a 0 -i 0 -k MAC 
- -t 1.084700525 -s 0 -d -1 -p RTS -e 44 -c 2 -a 0 -i 0 -k MAC
h -t 1.084700525 -s 0 -d -1 -p RTS -e 44 -c 2 -a 0 -i 0 -k MAC
r -t 1.085053231 -s 4 -d -1 -p RTS -e 44 -c 2 -a 0 -i 0 -k MAC
+ -t 1.085063231 -s 4 -d -1 -p CTS -e 38 -c 2 -a 0 -i 0 -k MAC 
- -t 1.085063231 -s 4 -d -1 -p CTS -e 38 -c 2 -a 0 -i 0 -k MAC
h -t 1.085063231 -s 4 -d -1 -p CTS -e 38 -c 2 -a 0 -i 0 -k MAC
r -t 1.085367937 -s 0 -d -1 -p CTS -e 38 -c 2 -a 0 -i 0 -k MAC
+ -t 1.085377937 -s 0 -d 4 -p ack -e 98 -c 2 -a 0 -i 4 -k MAC 
- -t 1.085377937 -s 0 -d 4 -p ack -e 98 -c 2 -a 0 -i 4 -k MAC
h -t 1.085377937 -s 0 -d 4 -p ack -e 98 -c 2 -a 0 -i 4 -k MAC
r -t 1.086162642 -s 4 -d 4 -p ack -e 40 -c 2 -a 0 -i 4 -k MAC
+ -t 1.086172642 -s 4 -d -1 -p ACK -e 38 -c 2 -a 0 -i 0 -k MAC 
- -t 1.086172642 -s 4 -d -1 -p ACK -e 38 -c 2 -a 0 -i 0 -k MAC
h -t 1.086172642 -s 4 -d -1 -p ACK -e 38 -c 2 -a 0 -i 0 -k MAC
r -t 1.086187642 -s 4 -d 4 -p ack -e 40 -c 2 -a 0 -i 4 -k AGT
+ -t 1.086187642 -s 4 -d -1 -p tcp -e 1540 -c 2 -a 0 -i 6 -k AGT 
- -t 1.086187642 -s 4 -d -1 -p tcp -e 1540 -c 2 -a 0 -i 6 -k AGT
h -t 1.086187642 -s 4 -d -1 -p tcp -e 1540 -c 2 -a 0 -i 6 -k AGT
+ -t 1.086187642 -s 4 -d -1 -p tcp -e 1540 -c 2 -a 0 -i 7 -k AGT 
- -t 1.086187642 -s 4 -d -1 -p tcp -e 1540 -c 2 -a 0 -i 7 -k AGT
h -t 1.086187642 -s 4 -d -1 -p tcp -e 1540 -c 2 -a 0 -i 7 -k AGT
+ -t 1.086187642 -s 4 -d 0 -p tcp -e 1540 -c 2 -a 0 -i 6 -k RTR 
- -t 1.086187642 -s 4 -d 0 -p tcp -e 1540 -c 2 -a 0 -i 6 -k RTR
h -t 1.086187642 -s 4 -d 0 -p tcp -e 1540 -c 2 -a 0 -i 6 -k RTR
+ -t 1.086187642 -s 4 -d 0 -p tcp -e 1540 -c 2 -a 0 -i 7 -k RTR 
- -t 1.086187642 -s 4 -d 0 -p tcp -e 1540 -c 2 -a 0 -i 7 -k RTR
h -t 1.086187642 -s 4 -d 0 -p tcp -e 1540 -c 2 -a 0 -i 7 -k RTR
r -t 1.086477348 -s 0 -d -1 -p ACK -e 38 -c 2 -a 0 -i 0 -k MAC
+ -t 1.086587348 -s 0 -d -1 -p RTS -e 44 -c 2 -a 0 -i 0 -k MAC 
- -t 1.086587348 -s 0 -d -1 -p RTS -e 44 -c 2 -a 0 -i 0 -k MAC
h -t 1.086587348 -s 0 -d -1 -p RTS -e 44 -c 2 -a 0 -i 0 -k MAC
r -t 1.086940054 -s 4 -d -1 -p RTS -e 44 -c 2 -a 0 -i 0 -k MAC
+ -t 1.086950054 -s 4 -d -1 -p CTS -e 38 -c 2 -a 0 -i 0 -k MAC 
- -t 1.086950054 -s 4 -d -1 -p CTS -e 38 -c 2 -a 0 -i 0 -k MAC
h -t 1.086950054 -s 4 -d -1 -p CTS -e 38 -c 2 -a 0 -i 0 -k MAC
r -t 1.087254760 -s 0 -d -1 -p CTS -e 38 -c 2 -a 0 -i 0 -k MAC
+ -t 1.087264760 -s 0 -d 4 -p ack -e 98 -c 2 -a 0 -i 5 -k MAC 
- -t 1.087264760 -s 0 -d 4 -p ack -e 98 -c 2 -a 0 -i 5 -k MAC
h -t 1.087264760 -s 0 -d 4 -p ack -e 98 -c 2 -a 0 -i 5 -k MAC
r -t 1.088049465 -s 4 -d 4 -p ack -e 40 -c 2 -a 0 -i 5 -k MAC
+ -t 1.088059465 -s 4 -d -1 -p ACK -e 38 -c 2 -a 0 -i 0 -k MAC 
- -t 1.088059465 -s 4 -d -1 -p ACK -e 38 -c 2 -a 0 -i 0 -k MAC
h -t 1.088059465 -s 4 -d -1 -p ACK -e 38 -c 2 -a 0 -i 0 -k MAC
r -t 1.088074465 -s 4 -d 4 -p ack -e 40 -c 2 -a 0 -i 5 -k AGT
+ -t 1.088074465 -s 4 -d -1 -p tcp -e 1540 -c 2 -a 0 -i 8 -k AGT 
- -t 1.088074465 -s 4 -d -1 -p tcp -e 1540 -c 2 -a 0 -i 8 -k AGT
h -t 1.088074465 -s 4 -d -1 -p tcp -e 1540 -c 2 -a 0 -i 8 -k AGT
+ -t 1.088074465 -s 4 -d -1 -p tcp -e 1540 -c 2 -a 0 -i 9 -k AGT 
- -t 1.088074465 -s 4 -d -1 -p tcp -e 1540 -c 2 -a 0 -i 9 -k AGT
h -t 1.088074465 -s 4 -d -1 -p tcp -e 1540 -c 2 -a 0 -i 9 -k AGT
+ -t 1.088074465 -s 4 -d 0 -p tcp -e 1540 -c 2 -a 0 -i 8 -k RTR 
- -t 1.088074465 -s 4 -d 0 -p tcp -e 1540 -c 2 -a 0 -i 8 -k RTR
h -t 1.088074465 -s 4 -d 0 -p tcp -e 1540 -c 2 -a 0 -i 8 -k RTR
+ -t 1.088074465 -s 4 -d 0 -p tcp -e 1540 -c 2 -a 0 -i 9 -k RTR 
- -t 1.088074465 -s 4 -d 0 -p tcp -e 1540 -c 2 -a 0 -i 9 -k RTR
h -t 1.088074465 -s 4 -d 0 -p tcp -e 1540 -c 2 -a 0 -i 9 -k RTR
r -t 1.088364171 -s 0 -d -1 -p ACK -e 38 -c 2 -a 0 -i 0 -k MAC
+ -t 1.088933465 -s 4 -d -1 -p RTS -e 44 -c 2 -a 0 -i 0 -k MAC 
- -t 1.088933465 -s 4 -d -1 -p RTS -e 44 -c 2 -a 0 -i 0 -k MAC
h -t 1.088933465 -s 4 -d -1 -p RTS -e 44 -c 2 -a 0 -i 0 -k MAC
r -t 1.089286171 -s 0 -d -1 -p RTS -e 44 -c 2 -a 0 -i 0 -k MAC
+ -t 1.089296171 -s 0 -d -1 -p CTS -e 38 -c 2 -a 0 -i 0 -k MAC 
- -t 1.089296171 -s 0 -d -1 -p CTS -e 38 -c 2 -a 0 -i 0 -k MAC
h -t 1.089296171 -s 0 -d -1 -p CTS -e 38 -c 2 -a 0 -i 0 -k MAC
r -t 1.089600877 -s 4 -d -1 -p CTS -e 38 -c 2 -a 0 -i 0 -k MAC
+ -t 1.089610877 -s 4 -d 0 -p tcp -e 1598 -c 2 -a 0 -i 6 -k MAC 
- -t 1.089610877 -s 4 -d 0 -p tcp -e 1598 -c 2 -a 0 -i 6 -k MAC
h -t 1.089610877 -s 4 -d 0 -p tcp -e 1598 -c 2 -a 0 -i 6 -k MAC
r -t 1.102395583 -s 0 -d 0 -p tcp -e 1540 -c 2 -a 0 -i 6 -k MAC
+ -t 1.102405583 -s 0 -d -1 -p ACK -e 38 -c 2 -a 0 -i 0 -k MAC 
- -t 1.102405583 -s 0 -d -1 -p ACK -e 38 -c 2 -a 0 -i 0 -k MAC
h -t 1.102405583 -s 0 -d -1 -p ACK -e 38 -c 2 -a 0 -i 0 -k MAC
+ -t 1.102420583 -s 0 -d 5 -p tcp -e 1540 -c 2 -a 0 -i 6 -k RTR 
- -t 1.102420583 -s 0 -d 5 -p tcp -e 1540 -c 2 -a 0 -i 6 -k RTR
h -t 1.102420583 -s 0 -d 5 -p tcp -e 1540 -c 2 -a 0 -i 6 -k RTR
r -t 1.102710288 -s 4 -d -1 -p ACK -e 38 -c 2 -a 0 -i 0 -k MAC
+ -t 1.103099583 -s 0 -d -1 -p RTS -e 44 -c 2 -a 0 -i 0 -k MAC 
- -t 1.103099583 -s 0 -d -1 -p RTS -e 44 -c 2 -a 0 -i 0 -k MAC
h -t 1.103099583 -s 0 -d -1 -p RTS -e 44 -c 2 -a 0 -i 0 -k MAC
r -t 1.103452349 -s 5 -d -1 -p RTS -e 44 -c 2 -a 0 -i 0 -k MAC
+ -t 1.103462349 -s 5 -d -1 -p CTS -e 38 -c 2 -a 0 -i 0 -k MAC 
- -t 1.103462349 -s 5 -d -1 -p CTS -e 38 -c 2 -a 0 -i 0 -k MAC
h -t 1.103462349 -s 5 -d -1 -p CTS -e 38 -c 2 -a 0 -i 0 -k MAC
r -t 1.103767116 -s 0 -d -1 -p CTS -e 38 -c 2 -a 0 -i 0 -k MAC
+ -t 1.103777116 -s 0 -d 5 -p tcp -e 1598 -c 2 -a 0 -i 6 -k MAC 
- -t 1.103777116 -s 0 -d 5 -p tcp -e 1598 -c 2 -a 0 -i 6 -k MAC
h -t 1.103777116 -s 0 -d 5 -p tcp -e 1598 -c 2 -a 0 -i 6 -k MAC
r -t 1.116561883 -s 5 -d 5 -p tcp -e 1540 -c 2 -a 0 -i 6 -k MAC
+ -t 1.116571883 -s 5 -d -1 -p ACK -e 38 -c 2 -a 0 -i 0 -k MAC 
- -t 1.116571883 -s 5 -d -1 -p ACK -e 38 -c 2 -a 0 -i 0 -k MAC
h -t 1.116571883 -s 5 -d -1 -p ACK -e 38 -c 2 -a 0 -i 0 -k MAC
r -t 1.116586883 -s 5 -d 5 -p tcp -e 1540 -c 2 -a 0 -i 6 -k AGT
+ -t 1.116586883 -s 5 -d -1 -p ack -e 40 -c 2 -a 0 -i 10 -k AGT 
- -t 1.116586883 -s 5 -d -1 -p ack -e 40 -c 2 -a 0 -i 10 -k AGT
h -t 1.116586883 -s 5 -d -1 -p ack -e 40 -c 2 -a 0 -i 10 -k AGT
+ -t 1.116586883 -s 5 -d 0 -p ack -e 40 -c 2 -a 0 -i 10 -k RTR 
- -t 1.116586883 -s 5 -d 0 -p ack -e 40 -c 2 -a 0 -i 10 -k RTR
h -t 1.116586883 -s 5 -d 0 -p ack -e 40 -c 2 -a 0 -i 10 -k RTR
r -t 1.116876649 -s 0 -d -1 -p ACK -e 38 -c 2 -a 0 -i 0 -k MAC
+ -t 1.117205883 -s 5 -d -1 -p RTS -e 44 -c 2 -a 0 -i 0 -k MAC 
- -t 1.117205883 -s 5 -d -1 -p RTS -e 44 -c 2 -a 0 -i 0 -k MAC
h -t 1.117205883 -s 5 -d -1 -p RTS -e 44 -c 2 -a 0 -i 0 -k MAC
r -t 1.117558649 -s 0 -d -1 -p RTS -e 44 -c 2 -a 0 -i 0 -k MAC
+ -t 1.117568649 -s 0 -d -1 -p CTS -e 38 -c 2 -a 0 -i 0 -k MAC 
- -t 1.117568649 -s 0 -d -1 -p CTS -e 38 -c 2 -a 0 -i 0 -k MAC
h -t 1.117568649 -s 0 -d -1 -p CTS -e 38 -c 2 -a 0 -i 0 -k MAC
r -t 1.117873416 -s 5 -d -1 -p CTS -e 38 -c 2 -a 0 -i 0 -k MAC
+ -t 1.117883416 -s 5 -d 0 -p ack -e 98 -c 2 -a 0 -i 10 -k MAC 
- -t 1.117883416 -s 5 -d 0 -p ack -e 98 -c 2 -a 0 -i 10 -k MAC
h -t 1.117883416 -s 5 -d 0 -p ack -e 98 -c 2 -a 0 -i 10 -k MAC
r -t 1.118668183 -s 0 -d 0 -p ack -e 40 -c 2 -a 0 -i 10 -k MAC
+ -t 1.118678183 -s 0 -d -1 -p ACK -e 38 -c 2 -a 0 -i 0 -k MAC 
- -t 1.118678183 -s 0 -d -1 -p ACK -e 38 -c 2 -a 0 -i 0 -k MAC
h -t 1.118678183 -s 0 -d -1 -p ACK -e 38 -c 2 -a 0 -i 0 -k MAC
+ -t 1.118693183 -s 0 -d 4 -p ack -e 40 -c 2 -a 0 -i 10 -k RTR 
- -t 1.118693183 -s 0 -d 4 -p ack -e 40 -c 2 -a 0 -i 10 -k RTR
h -t 1.118693183 -s 0 -d 4 -p ack -e 40 -c 2 -a 0 -i 10 -k RTR
r -t 1.118982950 -s 5 -d -1 -p ACK -e 38 -c 2 -a 0 -i 0 -k MAC
+ -t 1.119262866 -s 4 -d -1 -p RTS -e 44 -c 2 -a 0 -i 0 -k MAC 